LAMMPS data file via write_data, version 8 Apr 2021, timestep = 0

6144 atoms
2 atom types

-3.2215665729829075 63.18985570416665 xlo xhi
0 28.102065988845414 ylo yhi
0 27.164051363405687 zlo zhi
10.145826591773428 10.171476553451527 7.112189656357014 xy xz yz

Masses

1 16
2 2

Atoms # atomic

1595 2 18.749479972165716 21.92433259444795 15.651330763199764 0 0 0
1604 2 4.939768741788273 5.4258214115801575 1.4304661480285994 0 0 1
103 1 9.847526632649771 11.058914912221342 11.886201671346825 0 0 0
987 2 12.363946001675526 9.399345221947991 19.165643015281272 0 0 0
225 2 3.2528865201787793 9.810966633801959 5.621245592659511 0 0 0
1113 2 10.482896754376888 21.762287903988824 12.754113710230973 0 0 0
25 1 9.524645518031132 10.865632604950989 8.887685057794894 0 0 -1
1625 2 10.477807403246576 17.960713053147142 16.144774298002897 0 0 0
2464 1 9.724200011695263 24.33530598444735 7.581405187489581 0 1 0
886 1 14.912919496854997 25.980467304552107 19.45186541917656 0 1 -1
1633 1 18.413113165965804 9.592660764458387 26.791307623548118 0 0 0
849 2 12.226305885564976 18.573357239495348 12.936823853601904 0 0 -1
2443 1 10.283591450694107 15.841958270094477 11.426147895948596 0 1 0
2575 1 6.940480739455503 4.452029114837687 11.178367864126514 0 1 0
2466 2 8.734053358060802 24.37801605268653 7.579814908177759 0 1 0
1895 2 5.936038147752286 17.016443692609368 7.379590055468556 0 0 1
1670 2 2.0718708157717076 4.760455171226711 2.306981934528634 0 0 0
1634 2 19.212228929164894 9.975597448561874 26.42897154799033 0 0 0
1064 2 24.320328799876947 28.73412499737715 21.339927749328798 0 0 -1
1894 1 5.892194816727835 17.12173435228882 6.384735057976919 0 0 1
1740 2 15.764791523811613 21.251975663979945 24.72717688334481 0 0 0
1916 2 9.992208142299773 24.348220704013485 9.384957526563518 0 0 0
611 2 16.152713196154636 30.833704895961624 16.677025686722786 0 0 0
1709 2 10.877528776758485 6.398453621957558 18.5132735714963 0 0 0
344 2 12.678548909033186 19.44103746693816 26.935640141830554 0 0 -1
2382 2 10.11724524750004 22.704249184955717 16.55249987473895 0 0 0
1587 2 12.912344684744763 12.173822662638692 11.071573810893033 0 0 0
1586 2 12.251125769039088 13.184423160300572 11.994613593307651 0 0 0
834 2 3.492554464725904 15.599105627087827 2.157653460617256 0 0 0
2564 2 7.3537238460454395 10.232366069489334 5.881863024852864 0 1 0
416 2 10.600074027525075 17.074473410763236 20.309715192323395 0 0 0
1871 2 18.50965456892173 21.15676100663681 20.92600896842151 0 0 0
610 1 16.284368842657255 30.17411689754968 15.942576726529744 0 0 0
1704 2 6.2231868309368865 15.270746953659398 12.748582342525296 0 0 0
2401 1 18.38985777285016 25.08727533042397 16.72079841294265 0 0 0
1658 2 13.431634096156913 29.69209732767715 18.59855864199401 0 -1 0
1708 1 10.618439545994207 6.034436874743801 17.658156283247454 0 0 0
27 2 10.209332594086991 10.35019490177218 8.380688210235121 0 0 -1
1273 1 2.503471208149919 7.745268952294258 2.6758679915765087 0 0 0
99 2 10.103898366965641 7.234500030247489 4.26379616800304 0 0 0
1561 1 10.432334258362982 15.05626796965255 15.024452532772319 0 0 0
1104 2 9.262791339430951 14.425391123600043 23.68351912806166 0 1 -1
174 2 16.131862453316874 7.6726216969033825 20.080330388422652 0 0 -1
1912 1 15.839646533666556 31.955221408714152 25.47769471584422 0 0 0
2411 2 8.325713876463674 28.849032062708805 3.794229578355076 0 0 1
1112 2 10.357982011199674 20.36355894948485 13.51021239292214 0 0 0
224 2 3.221271190419463 8.275175591754905 5.477693375362234 0 0 0
1781 2 10.3170194738602 12.75447489103405 12.396511168503604 0 0 0
1710 2 11.188141675063832 6.474578974945036 17.058040949760393 0 0 0
1689 2 7.888018637805739 7.632925120246879 12.445938416054382 0 0 0
1705 1 18.463456499103383 14.140308267473664 15.198577478905355 0 0 -1
1773 2 15.229266109895082 27.77062556790218 24.21041182452521 0 0 -1
827 2 12.616979506297561 24.56899630453515 13.94578740777353 0 0 0
1570 1 11.405564280575557 13.3148399627434 16.934578018514372 0 0 1
2314 1 15.567494254244323 25.585740576303007 8.721706308074245 0 0 1
1129 1 12.952782253361153 12.957214122749626 20.969484116778847 0 0 -1
2360 2 7.128030666331115 11.109178575223622 10.276170779352633 0 0 0
1635 2 18.194930967901207 8.740937956426693 26.279923610031457 0 0 0
1017 2 18.235882677289535 29.800586854694295 12.763720765034208 0 0 -1
2576 2 7.809812975986499 4.576835935329587 10.794522433429618 0 1 0
821 2 4.845790484502623 18.585082133181523 0.5508717222559504 0 0 0
2671 1 4.488756788570631 7.872898507308411 15.82246006667209 0 1 0
896 2 22.50959501092872 27.757942414051918 22.338383345696727 0 0 -1
2506 1 4.4869951513412625 20.13509124229651 1.1826718771931264 0 0 1
148 1 8.895861300931639 9.307553712246593 25.454216481807755 0 0 -1
1571 2 12.14420226880775 12.75173026452853 16.657315022382257 0 0 1
29 2 11.174429707414525 24.260630232076345 15.374191053557553 0 0 0
894 2 15.509803868337094 21.335592467625947 8.126713922803747 0 0 0
146 2 13.860198911268803 27.97471545543096 17.288294662359476 0 -1 -1
5273 2 16.2953702246475 34.028158570848554 23.600902562269034 1 -1 0
1546 1 10.27053067950095 15.793541600207408 23.52765769056371 0 1 0
1669 1 1.354591219964309 5.426360256161002 2.335541926117514 0 0 0
1063 1 23.621450295210803 29.089066296683406 21.966234658704625 0 0 -1
1671 2 1.9038620419669243 6.237467242536487 2.4088772165210264 0 0 0
2046 2 10.516121690425443 3.541078680124566 3.5740931410167898 0 0 1
2324 2 6.845568923422902 22.247152854592606 1.1716712121664585 0 1 1
846 2 13.126602158422966 16.528984902581907 24.361868315326916 0 0 -1
756 2 14.486819422644484 28.263417201552155 7.6088403300679595 0 0 0
1739 2 16.95789189845473 21.75243316866097 25.50211105892423 0 0 0
822 2 6.20009691714757 17.730208100050547 0.4562843275625115 0 0 0
2471 2 19.730426596271084 6.087132330124964 18.795481333585347 0 1 0
2343 2 12.952473561418206 16.33116257345514 26.365052253767335 0 1 0
887 2 15.884542884424235 25.97957874833428 19.44187700739907 0 1 -1
2465 2 9.979788443269324 24.436475746525836 6.703067010819595 0 1 0
2431 1 11.34642622297812 26.55037334861985 17.577803648631008 0 0 0
1274 2 3.4670919816244687 7.673687270502125 2.851813732864677 0 0 0
223 1 2.7194203879844894 9.059691838930283 5.820242579389987 0 0 0
2325 2 5.81364633044818 22.922656490422362 2.213185168566506 0 1 1
1103 2 8.560415198306178 13.011471114235993 23.320701957435134 0 1 -1
2407 1 9.034377219654075 21.578499184219183 8.113173268106275 0 0 0
1687 1 7.435890613578178 8.261290511470756 13.08999225082863 0 0 0
986 2 11.347674294299733 8.588590117976489 19.993615117919386 0 0 0
1706 2 19.187513652925986 13.572155886717368 15.489395825912597 0 0 -1
3002 2 6.600229715741457 14.669644639370551 10.723778005655202 0 1 0
1374 2 17.881440910312083 22.52350591758188 0.5953542922791363 0 0 0
1688 2 7.051347978685684 7.780100905015085 13.887186250444197 0 0 0
2489 2 20.501541404331135 19.507989064691145 1.9250680292688835 0 0 1
1610 2 8.892110377273198 17.194717953713564 4.773335393843731 0 -1 0
922 1 21.253259686852005 18.006089851950176 12.126211250307698 0 0 0
2409 2 9.404430496100769 22.439094749510332 7.877000435194572 0 0 0
845 2 13.523561897747783 15.681351636221734 23.024295589982096 0 0 -1
1563 2 10.819464432790319 15.995827037859165 15.040515844728292 0 0 0
232 1 11.444873407042234 20.61967452765795 24.060607943658745 0 -1 0
893 2 15.95228420357055 21.270852476280144 9.588636558840093 0 0 0
28 1 11.454599300444105 25.165867803939225 15.116767596280742 0 0 0
2652 2 25.512298320092423 23.612698444855848 25.399247733212476 0 0 0
755 2 15.389734678604366 26.917028483945785 7.700154356187465 0 0 0
300 2 13.698045247642234 18.83750549790909 3.4053146756216828 0 0 0
1585 1 13.072767310300467 12.994228110791239 11.466528917707077 0 0 0
2414 2 15.447635934989773 19.18638279870275 14.396934573569698 0 0 1
2436 2 21.05180854367864 21.157673028814923 10.085609774487459 0 0 0
2441 2 13.898224095667114 20.052484909031534 15.660726616154715 0 0 1
847 1 11.886519087927368 19.21264969251763 13.53189837569714 0 0 -1
1562 2 10.421176164215677 14.599838123339643 14.141064704038184 0 0 0
1015 1 17.523077551553673 29.348942443672932 12.376078217585627 0 0 -1
1738 1 16.360721171708313 20.96570964710957 25.418370831632675 0 0 0
2380 1 10.778437284176942 22.792973687711967 15.854457432632726 0 0 0
1914 2 16.142040222346473 31.946252012676418 26.45819972254108 0 0 0
2396 2 14.356185058831247 31.505863028198434 13.068301451171681 0 0 0
2626 1 14.676443389856821 29.57741423158092 22.05891600741215 0 0 0
1790 2 3.25651843787998 5.817336602270246 6.012970152559245 0 0 1
2440 1 14.163423750357612 20.261550273752718 14.727375467959524 0 0 1
98 2 11.199111666526719 6.486811401780382 5.031818660634991 0 0 0
2408 2 9.741382982004634 21.159630886998407 8.721425305854309 0 0 0
369 2 15.991787830843503 10.001200069780417 11.300742011769312 0 0 -1
1065 2 23.587025932828855 30.042339871174917 21.84853477903954 0 0 -1
1130 2 12.330939124536574 12.273673019718233 21.279243514557326 0 0 -1
2355 2 23.738010228645873 22.52286497854686 19.823267000432875 0 0 0
962 2 18.922286517070017 27.950331510763082 27.144241572901464 0 0 -1
888 2 14.656700927853343 25.21236393277544 18.913007664118275 0 1 -1
233 2 11.690649323987635 20.127814173463296 24.825464783407256 0 -1 0
299 2 13.27128321798535 19.74425079725707 4.693315787515361 0 0 0
626 2 18.52114250519343 13.757754394679692 20.369552528184983 0 0 -1
873 2 10.247890056012345 17.81342981190441 18.37368490517343 0 0 0
332 2 15.771243216330259 26.751084526925517 15.483306423343292 0 0 0
2311 1 16.453932236666066 13.583836709358803 24.017842046753355 0 1 -1
1515 2 10.98278592356061 16.333533236600545 7.660822550790447 0 0 0
1896 2 6.8012604312799345 16.912017406365923 6.040409373634086 0 0 1
2358 2 23.60886576314342 12.389753702981583 23.17752099565815 0 1 0
984 2 13.834090661723483 10.264949568851565 15.973682017419403 0 1 -1
588 2 4.993655813300676 11.475258307888563 4.097727856225411 0 0 0
1901 2 7.647115367611458 7.593180988187934 23.011408949285418 0 0 0
2668 1 17.97055605278237 26.897190398337397 13.142437023558083 0 0 0
359 2 13.071773403531807 22.83048763422125 26.98659960470238 0 0 0
2449 1 13.813838394969896 27.2705151622879 21.476312226349172 0 0 0
435 2 18.662794344456962 10.349281777450228 12.566239368684304 0 0 -1
1023 2 21.883985826310802 14.502258232312764 13.110822501234582 0 0 0
1132 1 8.948684127669484 7.021877233173736 11.345761037996542 0 1 0
1780 1 10.742637461583247 13.574968314404845 12.759471234261891 0 0 0
898 1 13.620274909476507 27.483412491717285 13.11253673299604 0 0 0
1514 2 11.214875959213312 17.859141721935977 7.370477106562442 0 0 0
1777 1 15.232672948178664 15.890554195236549 2.508210791607709 0 0 0
352 1 4.25317740734159 10.312044444299744 9.973956538719392 0 0 0
961 1 9.008880197503395 19.89363828408775 0.09178753111457305 0 0 0
885 2 14.817950460711256 5.499159719742284 14.972541444056697 0 1 -1
1110 2 5.705935284211695 10.862096205246297 15.673939191867161 0 0 0
2316 2 16.450561370283545 25.21752433706256 8.577458270529807 0 0 1
2581 1 22.284615576885034 24.74927124003239 6.6704071087536345 0 1 0
818 2 5.61536451517208 4.10535693538024 13.894682016738937 0 1 -1
775 1 18.425638379452693 23.713799346704416 5.625646029273679 0 0 0
1603 1 4.834639439347195 5.291338365625387 0.4531765683220243 0 0 1
147 2 14.0891313420906 27.296739583170048 18.705984612332664 0 -1 -1
1605 2 4.072417508262516 4.713707886449029 0.3252998283098513 0 0 1
830 2 11.531178337426724 29.042541940784584 11.47816188241336 0 0 0
77 2 11.249929749708109 25.314879270949195 1.4467778246691745 0 -1 0
1693 1 14.66114970524377 4.886839694743676 5.287247168781589 0 0 0
1877 2 23.33633205065809 32.868013404110776 19.36014369273831 0 -1 0
2669 2 18.24227530052032 26.36470021978117 12.391137668176256 0 0 0
1590 2 6.275692286803621 24.82322729740059 1.8558444457416108 0 -1 1
870 2 7.294502804813798 21.419619768626344 8.273835065213232 0 0 0
1016 2 17.670862533342035 28.415677732140203 12.52240927201821 0 0 -1
2283 2 11.375770097609124 26.482129955442055 5.655750275571705 0 -1 0
825 2 5.441265914607102 5.739123104407256 20.18588665408526 0 1 -1
97 1 10.57593809069127 7.236846333319355 5.105193013907645 0 0 0
2577 2 7.071904088930469 4.226757417672939 12.092950940023231 0 1 0
113 2 17.79358074097365 26.888307863583314 19.715811011077577 0 -1 0
1513 1 10.879843312610856 17.010379134179637 6.964284748040671 0 0 0
1078 1 21.058382239437666 23.890743898783846 13.789445587731368 0 0 0
963 2 19.528003329098695 26.732510415764697 26.3821810033669 0 0 -1
2423 2 19.164432660398884 5.545268767990848 14.493520836114394 0 1 0
2353 1 24.20332551506598 22.55638519168825 18.95764537046823 0 0 0
917 2 11.830836112405951 14.445802497342115 26.93067527677592 0 1 -1
417 2 11.16246929054552 15.939331712045794 19.371943576218516 0 0 0
985 1 11.444126185232317 9.362472369360686 19.436180052941953 0 0 0
1884 2 9.679176250043724 17.503014224311634 11.076279519154095 0 0 0
76 1 10.87059289702525 24.417031934704656 1.4871011126078217 0 -1 0
298 1 13.963750651501314 19.162220217021375 4.342468366582228 0 0 0
1707 2 18.49627253256504 14.914881092375063 15.83478253671979 0 0 -1
876 2 11.080379252551438 30.539850374735444 9.877784365469413 0 0 0
612 2 16.606625880695383 30.843330444140143 15.276512784979134 0 0 0
2376 2 12.624877430248244 29.120756769792425 8.765881245932801 0 0 1
1079 2 21.737672165054676 23.2505895017583 14.126499900812815 0 0 0
883 1 15.623129843654457 4.979678260081487 15.173266090801473 0 1 -1
2442 2 14.189584609098205 21.20962208360999 14.629121905008429 0 0 1
1915 1 10.054677954550822 24.338077069141484 10.351850667711203 0 0 0
14 2 10.643784269383627 12.457505420463889 24.837592182413676 0 0 -1
2315 2 15.410004097230068 25.712491253493756 9.656014729718951 0 0 1
1588 1 6.392189397643404 25.158934000217144 0.9802258104257208 0 -1 1
983 2 14.70498213250755 8.993396346067488 15.882640954723293 0 1 -1
923 2 20.948775205702894 18.96818551266324 12.301842870265524 0 0 0
2572 1 15.777855256734025 19.775880055678655 18.36980717124629 0 0 0
354 2 3.6362404519732614 9.653744934106712 9.511419860701896 0 0 0
156 2 6.031822964678727 8.632597742412608 12.261429683483758 0 0 0
2630 2 5.082617209958491 13.08161750868185 12.620369254452658 0 0 0
1616 2 15.604135202182004 24.28716716226148 15.360565408033258 0 -1 0
1050 2 11.530215268949881 22.17317429409576 3.26970065149543 0 0 0
1081 1 20.294917329848808 8.840302180301956 20.91952508880379 0 0 -1
1594 1 19.095586493629163 21.24269423781055 16.385945303237246 0 0 0
2445 2 10.370832808218537 15.446495857300858 10.54333177080965 0 1 0
136 1 14.09311296967837 26.644275451452426 24.05424518314907 0 -1 0
1150 1 20.118744255376697 16.21905745963753 19.189873955174207 0 0 0
1841 2 17.593802025561775 14.870053760809569 23.174466685089758 0 0 0
313 1 14.603485857889005 16.286568383485996 14.410537672145926 0 0 -1
1118 2 18.51455288048317 28.510544435521766 23.264865200233803 0 0 -1
1872 2 19.046796403151784 21.920727360681873 19.744985152754094 0 0 0
2613 2 21.32751437800653 23.33320170749009 10.801850071067689 0 0 1
1133 2 9.706477445248588 7.610583407667315 11.393232815271816 0 1 0
1762 1 9.663138490056639 9.237000284956075 14.258860562088707 0 0 0
2556 2 20.248802821758165 20.51571686438273 25.251156823185454 0 0 0
2548 1 12.03176108366582 1.8306741909452684 0.6771614976256355 0 1 1
1870 1 18.25310780298862 21.833370169807832 20.26618683931845 0 0 0
1662 2 5.538207853349932 12.050285431787014 1.6432670974714958 0 -1 1
979 1 18.816335954581703 16.76918149621885 1.5020306828143006 0 0 0
1736 2 15.676901279264513 11.540459023961823 10.060642816406409 0 0 0
376 1 20.95872015648573 31.389862636869374 17.98568729073129 0 -1 0
2610 2 27.00626026249051 26.014522902225856 21.95825392812972 0 0 0
219 2 8.374608068877492 26.258510923710915 3.8322910610730876 0 -1 0
333 2 17.00457173775681 26.0631285265691 15.989822262370291 0 0 0
2555 2 20.780071932377744 21.832477673847485 24.483650692612148 0 0 0
374 2 2.032800062536892 10.564625657114046 3.8952076715681376 0 0 0
1801 1 17.479733020510352 19.000752082325814 16.587027968887398 0 -1 0
442 1 9.00658277557375 10.643506681809473 5.209876600759324 0 0 0
2601 2 15.931705878189145 23.357973056394272 3.522731135388213 0 0 0
2600 2 16.456565631156447 24.789527471763183 3.7926915615336902 0 0 0
188 2 13.812901385565986 24.968619911704653 8.180252715795504 0 0 0
2444 2 11.146489996672848 15.953788301495731 11.77716481377441 0 1 0
1859 2 11.809659485094638 13.694349433450805 19.998309063603163 0 0 0
2642 2 4.175396581895808 3.4867012577291683 9.746937127310218 0 0 1
2307 2 6.755398773753389 8.056982140189366 5.413436550550386 0 0 0
1119 2 17.978787778018905 28.01525259808759 21.887458606578765 0 0 -1
1088 2 14.918333565711041 23.53003838209636 24.618257279146412 0 0 -1
631 1 6.7343575177796735 16.520303540151023 13.886538781568694 0 0 0
269 2 11.412368092863172 21.53026189950875 20.12616819970284 0 -1 -1
2306 2 7.494726309777676 7.184787808568584 4.2681695833709945 0 0 0
198 2 17.9380127825937 21.830405751336986 10.10349291595605 0 -1 0
2521 1 14.546468887079946 28.06670827131307 15.667751104291666 0 0 0
2468 2 18.199954730185837 18.70461524769189 26.301285180321912 0 0 0
2570 2 20.016160569546518 26.863630029031814 9.57613861571024 0 0 0
776 2 19.05143886506735 24.399996206789726 5.259193420827279 0 0 0
353 2 4.619456537440889 9.79031155883885 10.714894604189553 0 0 0
1589 2 7.200002880623512 25.70849011539855 0.9675277849764241 0 -1 1
1493 2 27.482666212591237 29.018928584913304 14.844626897807988 0 0 0
2604 2 14.910820797240536 14.036333935988829 23.13044843305515 0 1 0
372 2 8.981337263399258 12.014216738588017 21.45632709683968 0 0 0
1134 2 8.570031125056051 7.221428629219838 10.458688313779804 0 1 0
2644 1 8.026413907557014 6.509286254971383 17.65581459058638 0 0 0
3026 2 26.08665474067484 32.20435454128797 21.38844628321931 0 0 0
489 2 4.2047340726467 13.850603709889308 0.5983736444093358 0 0 0
1735 1 15.442126545189371 10.692260536726018 9.664217894414731 0 0 0
2646 2 8.957035777459176 6.390333638246495 17.797103568533267 0 0 0
2413 1 16.095550302200515 18.541955955654995 14.133281755129453 0 0 1
895 1 21.847557994625795 27.224407495437195 22.845764147673798 0 0 -1
2603 2 13.84159982380082 14.000091214031603 21.844043724995906 0 1 0
2554 1 19.978691914850376 21.33303043030137 24.798874286751875 0 0 0
371 2 8.347189536930653 10.694156239738442 22.262142776305623 0 0 0
2305 1 6.61256680261086 7.39475594563384 4.7234211479542285 0 0 0
443 2 9.164870697945236 11.579184327031307 5.177878140618446 0 0 0
1547 2 9.970196184719043 16.392262687205452 22.82796429715462 0 1 0
2375 2 12.213548880887764 27.901389384818895 7.7225093057312275 0 0 1
2493 2 7.363505346988769 22.52345880584998 5.069733176892682 0 0 1
2641 1 3.3855526120266717 4.049943827290843 9.867234783415068 0 0 1
897 2 21.64886446960836 26.424619806537205 22.260597156242163 0 0 -1
318 2 17.756246045410233 26.06891016700505 23.378985583041207 0 -1 -1
725 2 4.891976847721879 6.711359350888279 7.0504971197810455 0 0 1
2456 2 9.974042846382197 15.465293445646962 1.8294535036928972 0 0 1
1672 1 15.509244957769088 28.419860354689927 4.709646643932744 0 -1 0
1617 2 14.410300065848222 23.629321632993136 14.799646340389504 0 -1 0
1117 1 17.962863732077786 27.82091225840953 22.871068025069988 0 0 -1
1737 2 16.056084850751926 10.623208474305146 8.892452212339766 0 0 0
1909 1 15.94497566543863 12.714630844661233 17.128684943242412 0 0 0
1682 2 5.877959939222278 9.784011430230747 9.011582157895887 0 0 0
368 2 16.654599267046727 9.62868741105678 12.689432593287435 0 0 -1
197 2 17.243666200925585 21.18877377038729 11.437439984996622 0 -1 0
759 2 16.495289939930302 28.810212122026766 7.495086446058149 0 -1 0
2336 2 7.037399494524599 5.38879885005509 18.659427569626867 0 1 0
444 2 9.736150831107857 10.234069651512142 5.7839553567704405 0 0 0
2513 2 17.40107938427286 29.17502248924234 16.76273132060711 0 0 0
2425 1 7.903519941156824 15.20911442450202 16.140099810027053 0 0 0
1681 1 6.813904781902175 9.785233421095192 8.631474731754533 0 0 0
2467 1 17.398729707819122 18.54039471064573 25.71082075715409 0 0 0
1596 2 18.529705099858944 20.450866267816963 16.472854193789093 0 0 0
1621 1 8.931343292414724 12.961243162435352 19.872727254106266 0 0 -1
1622 2 8.904890541785552 12.166434172830531 19.31062115316132 0 0 -1
1151 2 19.880168108898367 15.378354985088768 19.647217526388843 0 0 0
1691 2 18.39407132085659 29.85492094802904 26.255691114001284 0 -1 0
316 1 17.742749195104253 25.096042524586913 23.555285908286233 0 -1 -1
2612 2 21.276584460989323 24.083659501017173 12.094748312391333 0 0 1
2491 1 7.980009104583549 22.605050424870825 4.361143731078453 0 0 1
5 2 21.88722304280194 13.661441429166437 26.29008660423483 0 -1 0
833 2 4.528486106990087 16.09968015852574 1.0310734512800657 0 0 0
1876 1 23.55741175904662 32.27420662134123 18.61311711922448 0 -1 0
2563 1 6.473514692020136 10.006590241167599 6.142705655319549 0 1 0
2237 2 4.369817670628769 4.575788731809282 17.141238292763926 0 0 1
216 2 18.876290553199524 22.5856408595367 8.674268932845841 0 0 0
819 2 6.704621527342598 4.983353500781901 14.36281830402079 0 1 -1
373 1 1.8546728915231627 10.291648218813599 2.981844533704665 0 0 0
1049 2 12.579031163283148 23.10930087067942 3.9028623055442315 0 0 0
2512 1 17.870201530299326 28.390656201986495 17.195266589128597 0 0 0
214 1 19.161775203866384 21.6740506884225 8.93390517832098 0 0 0
1900 1 7.799060356284007 6.658241305299462 23.31437158765371 0 0 0
1837 1 5.478832769273862 16.851099455232816 9.124044300367856 0 0 0
1668 2 14.77949917043232 17.17138722643595 27.149082542400134 0 0 0
2439 2 8.284562979085766 15.199901441737566 6.178860102823225 0 1 0
189 2 12.835348989243698 23.95355195551459 8.754277081677564 0 0 0
844 1 12.975189394400527 16.474887897704463 23.379667760147285 0 0 -1
187 1 12.958265391052873 24.513551488228067 7.986647300850868 0 0 0
1611 2 9.150450757973001 16.94912711084044 6.241461317441906 0 -1 0
314 2 14.339758538410099 16.27559234579003 15.384922863067217 0 0 -1
2602 1 14.431814974367036 14.523634270877743 22.44377445714393 0 1 0
293 2 5.618177981008611 13.42975383100905 8.959366319137969 0 0 0
1560 2 9.913917420629236 27.82862243351146 1.2403541111660985 0 0 1
874 1 11.892190997036714 30.08156817985082 10.023717718221745 0 0 0
271 1 13.702211225304012 11.916589705618568 15.863001352241154 0 0 0
2469 2 16.99429407135984 19.402036457605753 25.606018458648204 0 0 0
1694 2 15.366360966502928 5.221770939527657 4.616995849067397 0 0 0
385 1 16.81357023551544 18.297858002373637 22.971150812748537 0 0 -1
154 1 5.105372770212639 8.602417785994293 11.851947251335291 0 0 0
2451 2 12.93054379495435 27.514031472909252 21.15850569794246 0 0 0
1152 2 20.16067133044905 16.950071516396445 19.88255370226722 0 0 0
625 1 19.46752985443222 13.881500938930396 20.0490948060417 0 0 -1
1878 2 22.682335247838612 31.834071300152345 18.389779627848036 0 -1 0
2437 1 8.270849338247313 14.209028502826023 6.229368175426388 0 1 0
1615 1 15.139464558183626 23.391416472749466 15.422291845817428 0 -1 0
920 2 18.075597023462894 19.621073441171063 22.693211177000556 0 0 -1
284 2 23.657132939019288 29.956330834044568 25.077100135066683 0 0 -1
871 1 9.793952005481668 18.323009934576774 17.674870102214626 0 0 0
820 1 5.252563439924399 17.7571846451748 0.22106875936232684 0 0 0
2670 2 17.271684533270726 26.386021697110216 13.637722360185109 0 0 0
117 2 8.509043607894586 10.232747232620495 3.1143649529317705 0 0 0
1089 2 15.342357268274956 24.47839458886833 25.83760340262825 0 0 -1
2492 2 7.462906518561289 22.290314515563235 3.610918957173156 0 0 1
1085 2 12.890397560537188 13.961832695858154 2.97116296658099 0 0 0
848 2 12.699242737900928 19.648784951891702 13.872230724098024 0 0 -1
273 2 14.412479736868928 12.400412219661744 16.35508539747776 0 0 0
1084 1 12.327643668940773 14.408099781030712 3.597253105738107 0 0 0
1910 2 16.664544052800796 12.20199400138537 16.688487416242676 0 0 0
1087 1 15.293971025635297 24.390357891179917 24.811749639640265 0 0 -1
203 2 6.228856199551555 8.715473206356 19.803207194504576 0 1 0
196 1 17.111047875369152 21.87852227381006 10.735622230941997 0 -1 0
777 2 17.624624036222492 23.750822931418544 5.031191974360059 0 0 0
308 2 23.984866557137213 32.102134558196816 23.229595363104057 0 0 -1
309 2 23.47851968054809 32.45672856178278 21.68909775049207 0 0 -1
2424 2 19.642035977065497 7.05968235976281 14.762100011516786 0 1 0
1809 2 16.373571910297034 15.17889282818232 12.517822027293754 0 0 0
880 1 14.282595070465607 18.740979465010444 22.43741515346981 0 0 0
315 2 15.130719669075102 15.4700456303822 14.327721394593748 0 0 -1
283 1 23.11884259965688 30.73080060917342 25.395578487147517 0 0 -1
386 2 16.988062943950247 18.281302922177748 23.946756728371003 0 0 -1
2589 2 17.140375490677034 7.617893872782596 8.571180033661841 0 1 0
726 2 6.104300840470976 6.820861116025249 8.155427353421304 0 0 1
138 2 13.858767296813788 26.79324260723366 23.132184950960298 0 -1 0
973 1 9.43900608133428 24.88781759748029 3.6446340119624345 0 0 0
387 2 17.151764784302888 17.378801122097304 22.675765259752342 0 0 -1
319 1 18.42032967745784 16.301709216121438 16.944966218305257 0 0 -1
1559 2 0.5081091516860186 1.1389504216762485 1.1908186976139248 0 1 1
1683 2 6.594999178379326 9.771265303780766 7.64926728598974 0 0 0
1558 1 10.651565566607164 28.346498850286036 1.6029978425277036 0 0 1
1763 2 9.37457049261062 9.969706306797242 14.901116228202165 0 0 0
2339 2 8.468772054591696 3.686156748180865 13.783210175805916 0 1 0
1638 2 6.287808823904386 9.5320584349737 17.87958390986977 0 0 0
285 2 22.377240785812997 30.333794699757902 25.840263163454363 0 0 -1
2549 2 13.021317416721402 2.021368125677027 0.9121905944266467 0 1 1
809 2 23.285511270306078 15.66122980965334 24.29354927482757 0 0 -1
1802 2 17.118679925638084 18.76714795620888 15.689505033177936 0 -1 0
901 1 11.641563951018377 22.64470794140402 11.634591726927463 0 0 -1
902 2 12.255391908943167 23.089345118845248 12.27036589603014 0 0 -1
320 2 19.090738679575352 16.477157462055388 17.622914410859753 0 0 -1
1539 2 8.265258717763746 17.509340605527548 17.668390977851747 0 0 0
2044 1 11.46232259965975 3.402986304110753 3.3396274636875165 0 0 1
2645 2 7.754336761128061 7.345878504940953 18.06476455247355 0 0 0
1600 1 14.786429600806944 11.89301616452736 19.404634541323247 0 0 0
123 2 15.558800126201778 14.951239456776696 21.15603221355521 0 0 -1
367 1 15.868834914527461 9.9832610650943 12.29551522522633 0 0 -1
1583 2 13.170489698939967 16.54185396369565 13.000361395461207 0 0 1
317 2 16.862456210289942 24.828606046836246 23.944083906385245 0 -1 -1
2571 2 20.0694265196158 25.395578947374954 10.36767497121623 0 0 0
3001 1 6.776357386140545 14.704401218905593 9.77219533851125 0 1 0
115 1 8.040274689067093 10.380526885699304 2.2420950653668914 0 0 0
116 2 7.25763649120156 10.96548879818121 2.384480708532494 0 0 0
817 1 6.606908379199532 4.043917799117912 14.045571445089767 0 1 -1
724 1 5.190494374002783 6.516276182130414 7.993902071145377 0 0 1
2415 2 15.541058808507294 17.746827627952865 13.9937251016117 0 0 1
1911 2 16.2202097049769 13.642134482045334 17.123272541000283 0 0 0
1048 1 12.293352990626452 22.75614379357955 3.0411446188230027 0 0 0
1066 1 17.975303296096758 28.634964330553448 20.142768667946733 0 1 -1
331 1 16.393172824057313 26.068119883078797 15.218405291943368 0 0 0
1086 2 12.694912669852393 15.18115000211674 4.119111079757078 0 0 0
627 2 19.993627156443477 13.511653475565074 20.77881327625728 0 0 -1
1083 2 19.676758956448925 9.261322880082457 20.30509209450936 0 0 -1
2514 2 17.92920896559945 28.651466451330435 18.15352802967388 0 0 0
1677 2 8.527999297359294 18.920678852826523 14.748113146442329 0 0 0
2565 2 5.879929817640858 10.542042567107682 5.595436237253129 0 1 0
2550 2 11.646991510062552 2.037563511277532 1.534307195404188 0 1 1
2381 2 10.519063270899636 22.13065185496126 15.188003180788916 0 0 0
1673 2 15.396767140365831 28.031104495778546 5.634826773277521 0 -1 0
1803 2 17.76993446813505 18.147207011571467 17.01332849683956 0 -1 0
2338 1 19.320115297664998 31.240763648176213 13.400969665626178 0 0 0
2438 2 9.142869469500184 13.807957586912433 6.073191750926347 0 1 0
2567 2 28.333471180983363 30.151126129032928 21.281585041623057 0 0 0
2569 1 19.53677762445176 26.111007799715605 9.85545089700263 0 0 0
1235 2 9.91588848540242 12.30261851876918 16.251602725171793 0 1 0
788 2 14.067993791926337 22.935448104573645 5.6800281198428655 0 0 0
155 2 4.507435588337803 8.72097128887315 12.654419196795772 0 0 0
2395 1 4.127319606873081 4.338961589425892 13.422198472872218 0 1 0
2681 2 18.223388141832743 23.737638723849184 26.427566415208048 0 0 0
1234 1 9.286426486888526 11.577176137863672 16.00886802110836 0 1 0
900 2 12.778182148994247 27.680513021684686 12.728407040237276 0 0 0
1572 2 11.282926200081643 13.931463631865316 16.223249734977095 0 0 1
2682 2 18.923828156641775 22.454987512454938 25.582189066925633 0 0 0
1602 2 14.611242515123028 10.947515904918184 19.19923918753093 0 0 0
2680 1 18.195556611314586 22.780741280850997 26.136085180905102 0 0 0
1236 2 8.55340631933775 12.05877775454739 15.66058841609594 0 1 0
1001 2 4.175966678808142 12.967644405518701 7.213104251758981 0 0 0
272 2 13.907086873312142 12.095250432549815 14.915226627888275 0 0 0
1582 1 12.548821291779284 16.768823055021134 12.29151377016926 0 0 1
2574 2 16.297233671417107 19.482311358925966 17.570782987784607 0 0 0
1072 1 24.17519125364774 26.27886628571121 16.126778762350213 0 0 0
2495 2 31.492401921267145 32.82555310654007 25.646038306948075 0 0 0
1886 2 16.121311373520623 6.057315156939673 10.187243543865456 0 0 0
1907 2 5.3702804336786185 9.182330372245147 2.116935657847175 0 0 1
1863 2 3.2611634273393983 12.865453206699108 1.9801296131902613 0 0 0
1890 2 14.056883163912286 13.798772418668442 10.189211637499863 0 0 0
1840 1 17.97488241414391 15.633466480797244 22.680414154580262 0 0 0