LAMMPS data file via write_data, version 15 Apr 2020, timestep = 200000

972 atoms
2 atom types

8.8927415039112390e-02 1.9902125584962945e+01 xlo xhi
1.3230943671890039e-01 1.9858743563281983e+01 ylo yhi
3.2251568495448701e-01 2.0478256315045424e+01 zlo zhi
-2.2844563245660934e-01 -1.5182434136033396e-01 3.5026151547215119e-02 xy xz yz

Masses

1 16
2 2

Atoms # atomic

4 1 4.0700609692644694e+00 1.3771988157573607e+00 3.7892087039245834e+00 0 0 0
5 2 4.0213557970325562e+00 2.3396092388411480e+00 3.6168722465016536e+00 0 0 0
6 2 3.2254506680062249e+00 1.2679899653122277e+00 4.2929912575935258e+00 0 0 0
7 1 6.1122216076744973e+00 4.6628624010546655e+00 5.9977794316450490e+00 0 0 0
8 2 6.8565467594371281e+00 4.3500246507637224e+00 5.4337784731886662e+00 0 0 0
9 2 5.3678654065845697e+00 4.3929359539675010e+00 5.3238566367251066e+00 0 0 0
10 1 1.2384411867351430e+00 4.0990806731863803e+00 3.9868742026946986e+00 0 0 0
11 2 7.3582494137029875e-01 4.3152034539725816e+00 4.7878436525580126e+00 0 0 0
12 2 9.9442322858671250e-01 4.7841123822969989e+00 3.2381524900911325e+00 0 0 0
13 1 4.2279922741457607e+00 6.1237697237509661e+00 2.1164123924061378e+00 0 0 0
14 2 4.0932064807996893e+00 6.9690927793106541e+00 2.6080239224124631e+00 0 0 0
15 2 3.5601756509223379e+00 6.0444707304668759e+00 1.4479026330883016e+00 0 0 0
16 1 4.0790647157117483e+00 4.2183641160929275e+00 4.0156371749185062e+00 0 0 0
17 2 4.2839832741590831e+00 4.7915488773960133e+00 3.2469775361510713e+00 0 0 0
18 2 3.1462812718620716e+00 4.3795330380402993e+00 4.1990029104212869e+00 0 0 0
19 1 4.7074773427819921e-01 6.0901622815448819e+00 2.4674623231682093e+00 0 0 0
20 2 9.0740712888420427e-01 6.9649432867147505e+00 2.5132326162627505e+00 0 0 0
22 1 1.9645398748697802e+00 9.5072933309910013e-01 5.4843147486600010e+00 0 0 0
23 2 9.0840578387745530e-01 8.9550094655814283e-01 5.4202207497751438e+00 0 0 0
24 2 2.1135268648278114e+00 1.5213506480825045e+00 6.2528991940124046e+00 0 0 0
25 1 2.6550181611520438e+00 5.1465422342105551e+00 6.7305202368439163e+00 0 0 0
26 2 2.5736238996673051e+00 5.9426096137592008e+00 6.1961949568182808e+00 0 0 0
27 2 3.4714103446670674e+00 5.3168007019517569e+00 7.2199682365184863e+00 0 0 0
28 1 6.0784574637326099e+00 7.4626041692893363e-01 5.4577356795746717e+00 0 0 0
29 2 5.3885739004608517e+00 9.3159685540660064e-01 4.7738693543076840e+00 0 0 0
30 2 5.7337661139878602e+00 1.9535469836559543e+01 5.5839760205520408e+00 0 0 0
31 1 4.3450512865617197e-01 1.8601595953379166e+00 2.6347709136748594e+00 0 0 0
127 1 5.8292286076815014e-01 1.2817842398229882e+01 1.5667662482936831e+00 0 0 0
33 2 6.7800816578724010e-01 2.5621089684646421e+00 3.2659768347837734e+00 0 0 0
59 2 9.2147012877683281e+00 1.5096194093319566e+00 4.3424266114155063e+00 0 0 0
35 2 5.9907733460447607e+00 2.5077463329627774e+00 1.5811786375469576e+00 0 0 0
46 1 7.8275077453790738e+00 4.2191889101681603e+00 4.1980491815750094e+00 0 0 0
47 2 8.8136782379821561e+00 4.3343431010963638e+00 4.2087706715782938e+00 0 0 0
48 2 7.4830991507461517e+00 4.8664548666895824e+00 3.5916649628084265e+00 0 0 0
55 1 7.0021784421393392e+00 5.8947142157116872e+00 2.3824964151577523e+00 0 0 0
56 2 7.2275714618209852e+00 6.8095974689082697e+00 2.4748149421092527e+00 0 0 0
57 2 6.0159782744972796e+00 5.9174814174574131e+00 2.0748179285470134e+00 0 0 0
58 1 8.7655810997116834e+00 1.2193837935694432e+00 5.1865046603040721e+00 0 0 0
558 2 4.3706808887575459e+00 1.7777996496410594e+01 9.8073997602035821e+00 0 0 0
60 2 7.8680707315780705e+00 8.3160117101835140e-01 4.9261754549046852e+00 0 0 0
61 1 9.1403891309633689e+00 5.4868267621807325e+00 6.9333754733542055e+00 0 0 0
62 2 9.2292568855026893e+00 4.4898815033030983e+00 6.9139546688046050e+00 0 0 0
63 2 8.4634971595099291e+00 5.6913569352055742e+00 7.5778692308927731e+00 0 0 0
67 1 7.4984126407298684e+00 2.3042566721408986e+00 2.3635839926531004e+00 0 0 0
68 2 7.7170518921570928e+00 2.8900523512066898e+00 3.1769020954888130e+00 0 0 0
69 2 8.2237459663516859e+00 2.4748186357777668e+00 1.7404818158311386e+00 0 0 0
111 2 1.8246846211401140e+00 9.1484357253176487e+00 8.4985925053328082e-01 0 0 0
609 2 7.4364214727707711e+00 1.5899215417768202e+01 9.8437924865081001e+00 0 0 0
217 1 2.3856486426437864e+00 1.6237405831137622e+01 8.2135959250650914e-01 0 0 0
112 1 4.1450331290598648e+00 8.2572134828462733e+00 3.6561471766917202e+00 0 0 0
113 2 4.9710406450538587e+00 8.1045854388050458e+00 4.1212743091724304e+00 0 0 0
114 2 4.0997864131211070e+00 9.2584931670616193e+00 3.5246675970139330e+00 0 0 0
115 1 5.7926026625467344e+00 1.1458691713650405e+01 5.5196041592885816e+00 0 0 0
116 2 5.8631570560589266e+00 1.2402761389423629e+01 5.7438335943289562e+00 0 0 0
117 2 5.7728101634427640e+00 1.0928620425875986e+01 6.3550269691691508e+00 0 0 0
118 1 1.1054687094603191e+00 1.0916189134990315e+01 3.5580717165548399e+00 0 0 0
119 2 4.6829805665674734e-01 1.1006636657216967e+01 4.3180317303936029e+00 0 0 0
120 2 2.0483917223489474e+00 1.0989339352417460e+01 3.8418255622829394e+00 0 0 0
121 1 4.4589383410693433e+00 1.2315052157689914e+01 1.8305420331203854e+00 0 0 0
122 2 5.4144296439537394e+00 1.2359458863115478e+01 1.6122718435797634e+00 0 0 0
123 2 3.9536138131328560e+00 1.2216003731095935e+01 9.9803450575213193e-01 0 0 0
124 1 3.7257682038754840e+00 1.0812159554414745e+01 3.7720743667116783e+00 0 0 0
125 2 4.1002131391840768e+00 1.1277482306543092e+01 2.9975455470937304e+00 0 0 0
126 2 4.3581266536145353e+00 1.1093779899087696e+01 4.5136128142447820e+00 0 0 0
571 1 6.1081888498874581e-01 1.5347093655709298e+01 9.3148761265769249e+00 0 0 0
128 2 1.2374171808039733e+00 1.2614363011315319e+01 9.0848893929698937e-01 0 0 0
129 2 8.5466477571698429e-01 1.2167843731946382e+01 2.3392013370373292e+00 0 0 0
130 1 2.0659882989294056e+00 7.4417807041576296e+00 5.4227978048243566e+00 0 0 0
131 2 2.7296617220668562e+00 7.6124814667782275e+00 4.7191274528950027e+00 0 0 0
132 2 2.2193344504813144e+00 8.2237768635370703e+00 6.0064354177538810e+00 0 0 0
133 1 2.7016431140537951e+00 1.2114307643958947e+01 6.8188601004845104e+00 0 0 0
134 2 1.8935578921417964e+00 1.2309536121193183e+01 7.3877027200389254e+00 0 0 0
135 2 2.5207911093231612e+00 1.2512236211857877e+01 5.9801275594689463e+00 0 0 0
136 1 6.2098084300883203e+00 7.4523894289929737e+00 5.7564103608647077e+00 0 0 0
137 2 5.8476556786044265e+00 6.6238689435250775e+00 6.1277706211540224e+00 0 0 0
138 2 7.1676210836316665e+00 7.2137296447355101e+00 5.5453173020928288e+00 0 0 0
139 1 9.0282899430147512e-01 8.5362979781999009e+00 2.1613720451998129e+00 0 0 0
140 2 9.6239445893525877e-01 9.2789446069441333e+00 2.8263681726680052e+00 0 0 0
891 2 3.0651917865855851e+00 1.8950041977411132e+01 3.2361137118130401e-01 0 0 0
147 2 8.6361556600647855e+00 9.0634161460770706e+00 1.2112046759916624e+00 0 0 0
210 2 3.3601052591211733e-01 7.4311418618100618e+00 5.0017910282143045e+00 0 0 0
154 1 7.6706504606733965e+00 1.0530721911164605e+01 3.9081538971873084e+00 0 0 0
155 2 6.9854125529118525e+00 1.0851169760983804e+01 4.5707397536500878e+00 0 0 0
156 2 8.5418728500760075e+00 1.0592906015818260e+01 4.2330113907633793e+00 0 0 0
163 1 7.1411998390199258e+00 1.2532350505838776e+01 2.1206358953044857e+00 0 0 0
164 2 7.3656309536226781e+00 1.1804139804619123e+01 2.7555025894154510e+00 0 0 0
165 2 7.6889298119879843e+00 1.2542836843287613e+01 1.3090517749063486e+00 0 0 0
166 1 8.7348881447573277e+00 7.3306959299332402e+00 5.1797339752334759e+00 0 0 0
167 2 9.0130026705780164e+00 8.0881084579363982e+00 5.6891429748586848e+00 0 0 0
168 2 8.9229052859435356e+00 6.5628781590070009e+00 5.6853446194579194e+00 0 0 0
169 1 9.0232231461592196e+00 1.2057459074036855e+01 6.9286158684969852e+00 0 0 0
171 2 8.9691638167059597e+00 1.2776756767481858e+01 6.2506489924365756e+00 0 0 0
175 1 7.2759379871391241e+00 8.5899869417298227e+00 2.2802010103490917e+00 0 0 0
176 2 7.3049618853359872e+00 9.1904511451854400e+00 3.0562268777775770e+00 0 0 0
177 2 6.5372320558244352e+00 8.8808635167994687e+00 1.7255527012783831e+00 0 0 0
479 2 7.8104063505102568e+00 1.1550097838529988e+01 1.0340479960550281e+01 0 0 0
3 2 2.0462206196843562e+00 2.4234664686609304e+00 1.5029975273786826e+00 0 0 0
258 2 9.7059649026824815e+00 1.4388649102382992e+01 4.0605469825265326e+00 0 0 0
141 2 -1.2500839556804047e-02 8.5684929967855084e+00 1.7904717055193098e+00 0 0 0
2 2 3.5663539924084224e+00 2.4257310992887988e+00 1.1366252984000518e+00 0 0 0
220 1 3.8952008650849885e+00 1.4646046335803010e+01 3.5311088681161422e+00 0 0 0
221 2 3.6726787103386078e+00 1.5594520601722129e+01 3.2253026621773340e+00 0 0 0
222 2 3.9221420323454246e+00 1.4097412904786678e+01 2.7316963244212835e+00 0 0 0
223 1 5.5235986859492856e+00 1.7790162247323593e+01 5.5537716704153901e+00 0 0 0
224 2 6.2981963038979059e+00 1.7606437786732521e+01 5.0081679252833489e+00 0 0 0
225 2 5.5473199012227008e+00 1.7100580100379368e+01 6.2496705416777445e+00 0 0 0
226 1 1.1809732543717859e+00 1.7352436093144242e+01 4.0801107349931574e+00 0 0 0
227 2 8.3257901744856844e-01 1.7939710060978896e+01 3.3933695150194865e+00 0 0 0
228 2 1.1392673073257618e+00 1.6466041659773907e+01 3.6794821347637665e+00 0 0 0
229 1 4.4458059844284294e+00 1.9154962165006488e+01 1.5107613243332791e+00 0 0 0
230 2 4.4184054840591811e+00 1.8317509523047121e+01 1.9878908299103213e+00 0 0 0
231 2 4.0708943568630733e+00 1.9779580712565348e+01 2.1274406049418717e+00 0 -1 0
232 1 3.7291220685454194e+00 1.7463688346087686e+01 3.4268756086389742e+00 0 0 0
233 2 2.8192774451562888e+00 1.7707185469432616e+01 3.7688944608028354e+00 0 0 0
234 2 4.3576716279545380e+00 1.7461476928438991e+01 4.1931100356954811e+00 0 0 0
235 1 3.3361895766801403e-01 1.8937993723676968e+01 2.0603718194304061e+00 0 0 0
236 2 6.1386797769819701e-01 1.6847865126770450e-01 2.3265370515036952e+00 0 0 0
237 2 8.2936560488068678e-01 1.8849861009692489e+01 1.2222039888724077e+00 0 0 0
238 1 1.7445726412041056e+00 1.4051975401968388e+01 5.1883468107624759e+00 0 0 0
239 2 2.2677927835033316e+00 1.4238836086280848e+01 4.3356473182083208e+00 0 0 0
240 2 7.8159607108560669e-01 1.4008669031902002e+01 4.9744553577620279e+00 0 0 0
241 1 2.7913458752826110e+00 1.8615211252108182e+01 6.6412988933302994e+00 0 0 0
242 2 2.2417237819685183e+00 1.9009521602314742e+01 5.9788859858209955e+00 0 0 0
243 2 2.4503678927588148e+00 1.7696159693148054e+01 6.7613109216330889e+00 0 0 0
244 1 5.9962961383854054e+00 1.4041566996120450e+01 5.2264232504700141e+00 0 0 0
245 2 5.4766477880642155e+00 1.4594490830597012e+01 5.8872091808943443e+00 0 0 0
246 2 5.4705240587270385e+00 1.4019522257665585e+01 4.4046465646219453e+00 0 0 0
247 1 5.0455316960338714e-01 1.5299490617791122e+01 2.3229555329658025e+00 0 0 0
248 2 4.2614301521235259e-01 1.4339441379346722e+01 2.1872279002234229e+00 0 0 0
249 2 1.2504759311558495e+00 1.5580473909560993e+01 1.7530673621269142e+00 0 0 0
251 2 5.6039725197638042e+00 1.5531434637730579e+01 1.2739476048849427e+00 0 0 0
372 2 7.4729035156175456e+00 4.7481251961028796e+00 1.0255553397846983e+01 0 0 0
262 1 7.7270402826947135e+00 1.7502112277384867e+01 3.9961104349236920e+00 0 0 0
263 2 8.6933392131511749e+00 1.7494742826918753e+01 4.0899895516980180e+00 0 0 0
264 2 7.5044285954298431e+00 1.8195324312155812e+01 3.3324547757046545e+00 0 0 0
271 1 7.1060169577580945e+00 1.9345450687477012e+01 2.0738306693220867e+00 0 0 0
272 2 7.3548440341236505e+00 5.7674653216604688e-01 2.3328330073778636e+00 0 0 0
273 2 6.2095920811334722e+00 1.9289878101860971e+01 1.7142857292240024e+00 0 0 0
274 1 8.5508237265135012e+00 1.4237121170615952e+01 5.3931580200401967e+00 0 0 0
275 2 8.7749798196673865e+00 1.4948941416336021e+01 6.0401557148196652e+00 0 0 0
276 2 7.5508977314282415e+00 1.4234102589713029e+01 5.3180732163726958e+00 0 0 0
277 1 9.1312168706236250e+00 1.8526460383918959e+01 6.9110227099667680e+00 0 0 0
278 2 8.8971505552214989e+00 1.9148693872955548e+01 6.2357898554500224e+00 0 0 0
279 2 8.4593197895796806e+00 1.8639787576761108e+01 7.5960779562726986e+00 0 0 0
283 1 7.0875556366601034e+00 1.5478074490398948e+01 2.2814523510179958e+00 0 0 0
284 2 7.2064379553715234e+00 1.6074697742378817e+01 3.0606818028119256e+00 0 0 0
285 2 7.2068799951274629e+00 1.4548278238728129e+01 2.5284370165335144e+00 0 0 0
673 1 2.1675802431873716e+00 5.1460670109710884e+00 5.3844849614165213e-01 0 0 1
325 1 2.6262324021177159e+00 2.6469384050378819e+00 7.4928607996070165e+00 0 0 0
326 2 2.4917859595974816e+00 3.6127794856464766e+00 7.2093449045244142e+00 0 0 0
327 2 3.5603284858303144e+00 2.4353229657045086e+00 7.2949252778902043e+00 0 0 0
329 2 4.4238711801748680e+00 6.8746560142068946e-01 9.4225560472114047e+00 0 0 0
337 1 4.6978691012709612e+00 5.6309943204989441e+00 8.3766851214803530e+00 0 0 0
338 2 4.2751415917627629e+00 4.9592917485284813e+00 8.9915399155233811e+00 0 0 0
339 2 4.5178115834792285e+00 6.5259341501264458e+00 8.8100002647171181e+00 0 0 0
343 1 4.4366816671900705e-01 6.0365721094738554e+00 8.6799978815821000e+00 0 0 0
344 2 8.7326015527192247e-01 5.5453032632938211e+00 9.3788762862163111e+00 0 0 0
345 2 8.7354201925781561e-01 5.6181862131451625e+00 7.8699611596157810e+00 0 0 0
355 1 4.8212884876417389e-01 2.0077113614018933e+00 9.1215092620699654e+00 0 0 0
356 2 6.8106216542172815e-01 1.0284329882623715e+00 9.2676564037847324e+00 0 0 0
357 2 1.3358326544889398e+00 2.2861662216926368e+00 8.7262780637181407e+00 0 0 0
358 1 5.3260434554407077e+00 2.4416018953249305e+00 7.2641751619921537e+00 0 0 0
359 2 5.7718961424783100e+00 3.2662667642040391e+00 6.8788710672138320e+00 0 0 0
360 2 5.6749815828058621e+00 1.7141925462570098e+00 6.6304651851488527e+00 0 0 0
361 1 9.3361850108728213e+00 2.9941527604454516e+00 7.0368434028778859e+00 0 0 0
362 2 8.9612433553819084e+00 2.5210706766565876e+00 6.2497495088820347e+00 0 0 0
363 2 8.7586155468684392e+00 2.5405430276888872e+00 7.6877429165909890e+00 0 0 0
254 2 8.4432994199721989e+00 1.5514480613286432e+01 1.2106934900279454e+00 0 0 0
379 1 7.1962051356235639e+00 5.8719986980127707e+00 8.9071010279664851e+00 0 0 0
380 2 7.1657702887656951e+00 6.8095965720875276e+00 9.2292802855750526e+00 0 0 0
381 2 6.2758440130833062e+00 5.5409186925361738e+00 8.7249795918670827e+00 0 0 0
391 1 7.4756412923414253e+00 2.0164560994281429e+00 8.8166811048761247e+00 0 0 0
392 2 7.5575247775958232e+00 2.5575910793902605e+00 9.6607268849724406e+00 0 0 0
393 2 6.5662998032353910e+00 2.1163642264017120e+00 8.4061317300563800e+00 0 0 0
675 2 1.3730814914649037e+00 5.3439391294156637e+00 1.1063484699116948e+00 0 0 0
433 1 2.5304544573704861e+00 9.4062972896945389e+00 7.1044122572404254e+00 0 0 0
434 2 2.4327835410214629e+00 1.0396886515789800e+01 6.8587566856256794e+00 0 0 0
435 2 1.9164553293504052e+00 9.3699628829228701e+00 7.9147265662015123e+00 0 0 0
927 2 8.2320828366835279e+00 1.8786367355168558e+01 9.7611745372733116e-01 0 0 0
445 1 4.7070827569538931e+00 1.2251547348695052e+01 8.7723648931482341e+00 0 0 0
446 2 4.5587967896198220e+00 1.3044316282850765e+01 9.2900665572357148e+00 0 0 0
447 2 4.1372579694586475e+00 1.2380645418296114e+01 7.9480597075454495e+00 0 0 0
711 2 7.9931159532137031e+00 5.6333986937632439e+00 6.9641727117757790e-01 0 0 0
451 1 8.9373839274526778e-01 1.2654715441817880e+01 8.6427298170927269e+00 0 0 0
452 2 9.4056838896163408e-01 1.3621358499144877e+01 8.9289429829322611e+00 0 0 0
463 1 6.4498654821543000e-01 9.0118225590865162e+00 9.3068275969019894e+00 0 0 0
465 2 8.4649971373104260e-01 8.0898756006872112e+00 9.4590503065246612e+00 0 0 0
466 1 5.4960620919138341e+00 9.5723705212978931e+00 7.5328313148024462e+00 0 0 0
467 2 5.7747865205764155e+00 8.9078737026808987e+00 6.8313014181440934e+00 0 0 0
468 2 4.5357786963400049e+00 9.3414738416990595e+00 7.7827803166811584e+00 0 0 0
469 1 9.4024080089508786e+00 9.2769410774409433e+00 7.0595795721209162e+00 0 0 0
470 2 9.2014093383068829e+00 1.0222974662015648e+01 6.9419374939503236e+00 0 0 0
471 2 8.8976793016873703e+00 8.9967490222391202e+00 7.8104863657390995e+00 0 0 0
573 2 7.8563386595643148e-01 1.6082985606427549e+01 9.9530269032860534e+00 0 0 0
487 1 7.4995606536683415e+00 1.2619539721377791e+01 8.9273086946448625e+00 0 0 0
488 2 8.1044634700938580e+00 1.2477216685549212e+01 8.1468397915240907e+00 0 0 0
489 2 6.6265183772928777e+00 1.2338114718773163e+01 8.7072772885693936e+00 0 0 0
499 1 7.6653363807172754e+00 8.6605697943762507e+00 9.0670318216119519e+00 0 0 0
500 2 7.8135641057076812e+00 9.1587742748852250e+00 9.8939196369946085e+00 0 0 0
501 2 6.7828946332476869e+00 8.9352278002280467e+00 8.7281297624534826e+00 0 0 0
557 2 3.5766707353565845e+00 1.6438820029438553e+01 1.0192592220913349e+01 0 0 0
142 1 5.3061162192973486e+00 9.3776912770904666e+00 6.2033610089812885e-01 0 0 0
541 1 2.1863095966265020e+00 1.5824801720159840e+01 7.1887771340441491e+00 0 0 0
542 2 1.6120647279203835e+00 1.5673780884835569e+01 7.9453051562133172e+00 0 0 0
543 2 1.7321472415146912e+00 1.5344797338458788e+01 6.4838139776852675e+00 0 0 0
553 1 4.7872317150887334e+00 1.8973644753114570e+01 8.6379893888306185e+00 0 0 0
554 2 5.7540014295928241e+00 1.9104223748087797e+01 8.6008339213587792e+00 0 0 0
555 2 4.3879228680701301e+00 1.8797117246681076e+01 7.7717007362226154e+00 0 0 0
544 1 4.0060727213463254e+00 1.4554903846382551e+01 1.0159073067115649e+01 0 0 0
559 1 9.5974037272860757e-01 1.9083091409918381e+01 8.6553705023437626e+00 0 0 0
560 2 1.7164195101081248e+00 1.9091722689823925e+01 8.0126146397541049e+00 0 0 0
561 2 1.1287863573647590e+00 1.8538457016098434e+01 9.4487786001559950e+00 0 0 0
674 2 2.4718059813287723e+00 4.2526901274632634e+00 6.4426672509315286e-01 0 0 1
574 1 4.7843862638893944e+00 1.5639772341398452e+01 7.2142768746254076e+00 0 0 0
575 2 5.2347386161675402e+00 1.5492333192583812e+01 8.0753328771439818e+00 0 0 0
576 2 3.7842256150988556e+00 1.5542661487044233e+01 7.3374509100403911e+00 0 0 0
577 1 8.8330084237298987e+00 1.5887085572319718e+01 7.2597388625654800e+00 0 0 0
578 2 8.9076242261255487e+00 1.6861467592882562e+01 6.9635526398721597e+00 0 0 0
579 2 7.9621250210552885e+00 1.5882303486019353e+01 7.8158130626807285e+00 0 0 0
450 2 4.1136961885537913e+00 1.1125125053711132e+01 9.8141187859471462e+00 0 0 0
595 1 7.3413466730877852e+00 1.9132374806148619e+01 8.8632638777641031e+00 0 0 0
596 2 7.6263183178379084e+00 3.5688100701672931e-01 9.1204366714813752e+00 0 0 0
597 2 7.5129394736954982e+00 1.8489122129746107e+01 9.6248657995461908e+00 0 0 0
607 1 6.9045376842932793e+00 1.5318243641669492e+01 9.2361126016337831e+00 0 0 0
608 2 7.2933926251789929e+00 1.4370677262159306e+01 9.3386776422921880e+00 0 0 0
342 2 4.0239429705808494e+00 3.0983274332552466e+00 1.0199127238803351e+01 0 0 0
444 2 1.1342084063554958e+00 1.1628832435303062e+01 1.0187378590798676e+01 0 0 0
143 2 4.3614534712268958e+00 9.4629676635577713e+00 6.5902447996601543e-01 0 0 0
34 1 5.2413198008268163e+00 2.5157276815883192e+00 9.0835253163615970e-01 0 0 0
340 1 3.8052472868779184e+00 4.0713756034147259e+00 1.0353757695322718e+01 0 0 0
250 1 4.9428711101573288e+00 1.5775708435332021e+01 5.9748172243049669e-01 0 0 0
328 1 4.1941319440839440e+00 1.3201105364150918e+00 1.0126722955159611e+01 0 0 0
1 1 2.6926502519466844e+00 2.5247152365879963e+00 8.0185696991798161e-01 0 0 0
436 1 4.3699331257544216e+00 7.7582454849657720e+00 1.0085442094593120e+01 0 0 0
453 2 -2.9988707413893714e-02 1.2568450847871032e+01 8.3446481735856963e+00 1 0 0
146 2 9.0811271290660862e+00 1.0422726908770422e+01 3.6299183663806772e-01 0 0 1
145 1 9.2564983657350588e+00 9.4506538138685681e+00 6.0028126759806377e-01 0 0 0
437 2 4.2973577794285562e+00 8.8194716539992903e+00 1.0182230719160732e+01 0 0 0
218 2 3.3015921116163884e+00 1.5864934506818337e+01 6.4044339929363470e-01 0 0 0
253 1 9.0444688719086823e+00 1.5631086418394503e+01 4.0173873794806347e-01 0 0 0
219 2 2.2975192722818991e+00 1.7154951639940776e+01 5.2860787266888110e-01 0 0 0
925 1 9.0161302964667769e+00 1.8467723246038105e+01 4.0064196319281636e-01 0 0 1
443 2 1.1188087612968531e+00 1.0055054039835261e+01 1.0303316901138764e+01 0 0 0
336 2 5.5276094042297763e-01 4.5000217113847603e+00 1.1693186752083752e+01 0 0 0
876 2 2.8453919833655555e-01 1.7543553798910480e+01 1.8226720376840625e+01 0 0 0
728 2 -2.4726286486244933e-02 4.4218337290183785e+00 1.8872331805340181e+01 0 0 0
552 2 2.0458756779370670e+00 1.7692607365590419e+01 1.1087403772562043e+01 0 0 0
426 2 1.5772213729224921e-01 6.5079760292932320e-01 1.1721652743613085e+01 0 0 0
370 1 7.8314194198542362e+00 4.0348440284945815e+00 1.0822628058485314e+01 0 0 0
331 1 5.4256583525467548e+00 4.5514190842010063e+00 1.2440663714075811e+01 0 0 0
332 2 6.2818302363749128e+00 4.2528365084253839e+00 1.2105289690974077e+01 0 0 0
333 2 4.8280068364244793e+00 4.4132382515717765e+00 1.1702327308875072e+01 0 0 0
901 1 9.3340493380424636e+00 1.5893048557020679e+01 1.3767502853519821e+01 0 0 0
442 1 1.2427470183125799e+00 1.0888587117004830e+01 1.0845259165556442e+01 0 0 0
709 1 8.5113511276394167e+00 5.5834047741832249e+00 2.0139383948795427e+01 0 0 0
346 1 1.9906446880372817e+00 9.1256798951399687e-01 1.1618108529033304e+01 0 0 0
347 2 2.7691305940504338e+00 1.2430900670277394e+00 1.1106016801002927e+01 0 0 0
348 2 1.9298616612163031e+00 1.5966798758391370e+00 1.2346460791211120e+01 0 0 0
349 1 1.9532666397272123e+00 5.3154176458469218e+00 1.3518998369160112e+01 0 0 0
350 2 2.1321623004236803e+00 5.9276539933782368e+00 1.2746739723730849e+01 0 0 0
351 2 2.1424336980884431e+00 4.3685050373865870e+00 1.3328530909257104e+01 0 0 0
352 1 5.7591169357014360e+00 4.6107113878842776e-01 1.2061510022083052e+01 0 0 0
353 2 6.7791585511968275e+00 4.9976600898110984e-01 1.1939359345831692e+01 0 0 0
354 2 5.5880494828650153e+00 1.9280710179163570e+01 1.2313431302445753e+01 0 0 0
334 1 1.1580284214124972e+00 4.0779979872012326e+00 1.1054623155361751e+01 0 0 0
382 1 8.3690187060350745e+00 8.9174425610338248e-01 1.1947158239554664e+01 0 0 0
383 2 8.4201794558714198e+00 1.9864520205260561e+01 1.2510729309936574e+01 0 -1 0
39 2 8.7830989389687186e+00 1.9611050756928539e+00 1.9718274233423116e+01 0 0 0
385 1 9.0302539352231346e+00 5.3798536946987863e+00 1.3525287720028231e+01 0 0 0
386 2 9.0937734188009962e+00 4.3871692720890874e+00 1.3624986833230331e+01 0 0 0
387 2 8.2084980888250723e+00 5.5744019242218474e+00 1.4057547120008788e+01 0 0 0
707 2 9.0375865067480863e+00 9.7278578435514640e-01 1.7693448047217146e+01 0 0 0
384 2 8.9863548942681977e+00 9.7964417073941101e-01 1.1156843597852669e+01 0 0 0
439 1 5.8861671565245848e+00 1.1166218491778375e+01 1.2460811341938490e+01 0 0 0
440 2 5.8904532254572732e+00 1.2111030793298664e+01 1.2377641498372832e+01 0 0 0
441 2 5.2329645110243899e+00 1.0811090358173253e+01 1.1814658789794228e+01 0 0 0
486 2 9.6847553152540744e+00 1.0543319648418770e+01 1.1209480032528953e+01 0 0 0
454 1 1.8680102355434727e+00 7.3436652497616741e+00 1.1519620175774541e+01 0 0 0
455 2 2.6068004913924039e+00 7.4222389389835559e+00 1.0867837014053237e+01 0 0 0
456 2 2.2319447646521335e+00 7.8050812626936796e+00 1.2295139467559469e+01 0 0 0
457 1 2.5103738129411401e+00 1.2229202791223114e+01 1.3502789856989788e+01 0 0 0
458 2 3.3628276581311614e+00 1.2079072658533544e+01 1.3959984069957697e+01 0 0 0
459 2 1.7321943020574482e+00 1.2323980727585360e+01 1.4129472672660281e+01 0 0 0
460 1 5.7949205726566237e+00 7.2612723796297072e+00 1.2605718497745832e+01 0 0 0
461 2 5.7333696504610536e+00 6.2850521178477070e+00 1.2677549206550035e+01 0 0 0
462 2 6.7881142575418192e+00 7.3922864714808787e+00 1.2433725674157431e+01 0 0 0
858 2 2.9376718565927551e-01 7.1941794545618274e+00 1.8712069663612233e+01 0 0 0
480 2 7.5972315550477294e+00 1.0847132029200438e+01 1.1648553633174476e+01 0 0 0
924 2 7.8728470915885120e+00 1.3786865945410193e+01 1.7826794466848156e+01 0 0 0
490 1 8.4052439139686239e+00 7.7167438591916842e+00 1.2157995641919802e+01 0 0 0
491 2 8.7098115506680340e+00 6.8577407618939281e+00 1.2522968782795891e+01 0 0 0
492 2 8.7334886538482888e+00 8.3310831631312467e+00 1.2891485476149901e+01 0 0 0
493 1 9.2550665099228979e+00 1.2043858115961454e+01 1.3450030548166270e+01 0 0 0
494 2 8.5019953333065832e+00 1.2262650815413593e+01 1.4039379967001153e+01 0 0 0
495 2 9.1447343971635142e+00 1.2670536084171488e+01 1.2662277399684266e+01 0 0 0
341 2 2.8622715883789605e+00 4.0913942392386993e+00 1.0552377157507681e+01 0 0 0
474 2 9.6404519396118094e+00 7.4263214618142666e+00 1.0643274219858780e+01 0 0 0
679 1 8.8354918653418080e-01 2.2096065729727181e+00 1.5669156820930755e+01 0 0 0
533 2 1.2761705931293293e-01 7.4539016225489840e+00 1.2126550568013046e+01 0 0 0
587 2 8.8571255858475038e+00 1.7607271031463988e+01 1.1105765063725254e+01 0 0 0
110 2 2.1547971537594903e+00 8.6046449112155727e+00 1.9714791945666619e+01 0 0 0
547 1 5.5960677462501565e+00 1.7604556909329411e+01 1.2343178100774491e+01 0 0 0
548 2 4.7874882745136453e+00 1.7455525070789456e+01 1.1710356587185869e+01 0 0 0
549 2 5.4436709201033038e+00 1.6978628230721746e+01 1.3050599375673894e+01 0 0 0
551 2 5.1838401663140177e-01 1.7498550714467854e+01 1.1559860722289290e+01 0 0 0
562 1 2.2029194647383425e+00 1.4335375211365674e+01 1.2183883745949288e+01 0 0 0
563 2 1.2130702617456659e+00 1.4212329520454455e+01 1.1944782893811844e+01 0 0 0
564 2 2.5018792632667712e+00 1.3512957625462990e+01 1.2647318369143711e+01 0 0 0
565 1 2.4690537783346183e+00 1.8604215580669639e+01 1.3138402369026588e+01 0 0 0
566 2 2.4189603538197644e+00 1.9317447454896389e+01 1.2513542989934535e+01 0 0 0
567 2 3.1507032527212124e+00 1.8722844890389609e+01 1.3760724273613681e+01 0 0 0
568 1 5.8338297846844451e+00 1.4017011440367396e+01 1.2097216475283199e+01 0 0 0
569 2 6.8010053623910034e+00 1.4261499440560016e+01 1.2059345247167116e+01 0 0 0
570 2 5.4903147655205027e+00 1.4461635344516955e+01 1.2936633074041003e+01 0 0 0
680 2 1.3308644820107379e-03 2.2229744671579970e+00 1.5250381827861732e+01 0 0 0
438 2 4.8112539613792080e+00 7.4984701984333277e+00 1.0870745284729107e+01 0 0 0
588 2 7.3420241255441425e+00 1.7397163851868982e+01 1.1545715473011420e+01 0 0 0
598 1 8.6235115063366621e+00 1.4049437288415216e+01 1.1760421304247393e+01 0 0 0
599 2 9.2395407234651454e+00 1.4232960426900965e+01 1.0988896211239908e+01 0 0 0
600 2 8.9324917520878309e+00 1.4645190880844813e+01 1.2483107903206552e+01 0 0 0
601 1 8.5483895164472106e+00 1.8572447516187964e+01 1.3602125328932502e+01 0 0 0
603 2 7.7930117867411015e+00 1.8780282985164661e+01 1.4255960066760080e+01 0 0 0
550 1 1.1317614127853537e+00 1.7445453626171890e+01 1.0797321060618888e+01 0 0 0
449 2 3.1429165991826036e+00 1.0754122815238050e+01 1.0974347928100149e+01 0 0 0
649 1 2.5453390162876017e+00 2.5320274533687859e+00 1.3745388018308677e+01 0 0 0
650 2 3.3763490317797218e+00 2.3514291641536089e+00 1.4236037967718449e+01 0 0 0
651 2 1.8701443075266801e+00 2.6285573397838404e+00 1.4425248090424317e+01 0 0 0
652 1 3.6728438144542426e+00 1.4159429588460466e+00 1.6853050077804639e+01 0 0 0
653 2 3.9031761313951856e+00 2.3823306822137313e+00 1.6864437973456113e+01 0 0 0
654 2 4.4480811554150552e+00 1.1318313047170316e+00 1.7337436973144662e+01 0 0 0
655 1 5.6028432619606905e+00 4.6383824294875682e+00 1.8998912205785437e+01 0 0 0
656 2 5.5165609894781982e+00 5.6145186833113705e+00 1.9095112628108573e+01 0 0 0
657 2 6.3958588290836609e+00 4.5237137048634457e+00 1.8507583014662664e+01 0 0 0
658 1 1.1421350653707687e+00 4.2602703211239810e+00 1.7571893603282646e+01 0 0 0
659 2 9.6773677159758942e-01 3.4019595479757734e+00 1.7096815655807362e+01 0 0 0
660 2 8.7394953219262272e-01 4.8846548425928287e+00 1.6881059926733812e+01 0 0 0
661 1 4.3280922839039526e+00 6.0317726954796065e+00 1.5147067070185974e+01 0 0 0
662 2 3.9209872482878811e+00 5.3874148751067130e+00 1.5735287926017330e+01 0 0 0
663 2 3.8211648591303868e+00 5.8388471068588208e+00 1.4371465188954041e+01 0 0 0
664 1 3.6759433102976953e+00 3.9333720019480554e+00 1.7039294261912211e+01 0 0 0
665 2 2.8348893537855746e+00 4.1461625107522124e+00 1.7572021275209849e+01 0 0 0
666 2 4.3820117357210941e+00 4.2612449454296177e+00 1.7603601842840433e+01 0 0 0
836 2 1.8180323611001512e-01 1.1069726835405012e+01 1.8915645624479239e+01 0 0 0
668 2 5.9363687524125519e-01 6.8789203240223857e+00 1.5722648744590364e+01 0 0 0
669 2 1.0008678916065961e+00 5.6490903612536707e+00 1.4699481912868936e+01 0 0 0
670 1 1.6458708787158312e+00 1.2992826216729889e+00 1.8819846382261808e+01 0 0 0
671 2 2.0632726987932566e+00 1.8108636547363952e+00 1.9528640242661339e+01 0 0 0
672 2 2.2491698988872284e+00 1.2631917019819501e+00 1.8056263265268328e+01 0 0 0
676 1 5.4796175124048041e+00 7.1957228380109617e-01 1.8859458581563359e+01 0 0 0
677 2 5.4356358109570735e+00 1.1305497031172393e+00 1.9717976509574633e+01 0 0 0
678 2 6.3916592605763398e+00 8.3009130744406867e-01 1.8534647122782005e+01 0 0 0
923 2 8.4081457805976889e+00 1.4530439187688156e+01 1.9104982804555306e+01 0 0 0
478 1 8.0721434136157910e+00 1.0792123335681888e+01 1.0856108230342853e+01 0 0 0
681 2 1.1135713229910742e+00 1.2332276262226782e+00 1.5851320881307242e+01 0 0 0
682 1 5.3609121274180991e+00 2.1735300920198615e+00 1.4025874142465778e+01 0 0 0
683 2 5.2803649138855864e+00 3.0079915493586959e+00 1.3543286631890922e+01 0 0 0
684 2 5.3513128060132820e+00 1.4132257678704290e+00 1.3423498097786410e+01 0 0 0
685 1 9.1179859943221508e+00 2.7088255295238119e+00 1.3734539298422181e+01 0 0 0
687 2 8.8755043364999366e+00 2.2958933272215001e+00 1.2949298267582188e+01 0 0 0
694 1 7.6483131213870577e+00 4.3602648300425146e+00 1.7317583494877248e+01 0 0 0
695 2 8.6055161668707409e+00 4.3169140749898043e+00 1.7537073559158593e+01 0 0 0
696 2 7.4828184825418482e+00 3.5612973064101632e+00 1.6809050726501610e+01 0 0 0
703 1 7.2031590744010954e+00 6.4336710187257751e+00 1.5522248392859606e+01 0 0 0
704 2 7.4474909062984693e+00 5.7320217981739461e+00 1.6219183065346627e+01 0 0 0
705 2 6.2752760818333391e+00 6.2583261878281951e+00 1.5318673120737159e+01 0 0 0
706 1 8.5296855103535876e+00 7.1376610832291265e-01 1.8444181983266084e+01 0 0 0