LAMMPS data file via write_data, version 15 Apr 2020, timestep = 0

1944 atoms
2 atom types

-2.8824338248295689e-01 4.0270348382482645e+01 xlo xhi
0.0000000000000000e+00 1.9735283450502696e+01 ylo yhi
0.0000000000000000e+00 2.0413201069402064e+01 zlo zhi
-1.2347981586465551e-02 -1.0630792947679879e-02 1.5572954293478602e-02 xy xz yz

Masses

1 16
2 2

Atoms # atomic

129 2 1.9886678403910562e+01 5.8330532987834260e+00 1.3874158839453821e+00 0 0 0
1160 2 1.1601975370821824e+01 2.0459222490975768e-01 6.8879234533554801e+00 0 1 0
108 2 1.9321627532010965e+01 1.5162389866883505e+01 8.4547479071443394e+00 0 0 1
1538 2 2.6393234756883832e-01 1.5362942712620631e+01 3.0759621307243843e+00 0 0 0
969 2 9.4962357280065337e+00 9.7971559327017399e+00 1.4213036376517985e+00 0 0 0
478 1 1.5125350613978268e+01 1.7819286362043890e+01 4.2719656911955894e+00 0 0 -1
98 2 5.9577536930241353e+00 1.4115599312355817e+01 8.1468523576318841e+00 0 0 -1
490 1 1.0028592973962555e+01 6.3558065444076046e+00 6.3144909700233476e-01 0 1 0
725 2 1.7932403257684349e+01 1.6914776337411435e+00 7.8719389749317799e+00 0 0 0
1779 2 -1.1890371835062549e-01 4.6013123923819232e-01 5.1226448270119347e+00 0 1 0
1305 2 5.2427501208435743e+00 1.4794954730007692e+01 5.7867411627870560e+00 0 -1 1
535 1 1.5404659820478306e+01 1.3211624807443389e+01 4.0139063735380649e+00 0 0 0
1804 1 8.4076807133671494e+00 8.2820407636558713e-01 1.5265811176772819e+00 0 1 1
911 2 1.2311753563498927e+01 1.3182564195371807e+01 6.2502693241102865e+00 0 0 0
1567 1 8.4338212338333634e+00 1.7867372102880356e+01 2.3431885030792730e+00 0 -1 1
711 2 1.7673667456189360e+01 1.0677616109470174e+00 5.9626137768318275e+00 0 0 0
1135 1 4.3983490652974275e+00 1.2190901343955840e+01 6.1315883980204511e+00 0 1 0
900 2 7.0833102282219667e+00 1.5549643469228174e+00 6.1740609297927340e-01 0 0 0
226 1 3.1829944062126025e-01 1.1612066429133574e+01 2.5323794004135880e-01 0 0 0
59 2 4.7836641637989064e-01 4.3109092780151039e+00 7.7551850484400866e+00 0 0 -1
1559 2 1.1614580215197968e+01 1.3539261593634484e+00 2.7351375404785263e+00 0 1 1
676 1 7.8126481935771597e-02 8.3259861149906982e+00 2.6412570322658340e+00 0 0 0
1527 2 8.6561133832328796e+00 1.8325783931272405e-01 4.5035650450061873e+00 0 1 1
107 2 1.9283165394965859e+01 1.5375038848151613e+01 6.9097370537830418e+00 0 0 1
732 2 1.7757901642074994e+01 1.5731309508460967e-01 4.8580557650719797e-01 0 0 1
32 2 2.7025469171149998e+00 1.8574085979842437e+01 9.7946391345291128e-01 1 -1 0
1323 2 1.5632110757335718e+00 9.3400949936940396e+00 7.4901855130085782e+00 0 0 0
1158 2 1.7883590889978869e+01 1.5082885062362612e+01 9.5736901260525986e-01 0 0 0
1564 1 8.5406675902695479e+00 1.8509989652684116e+01 7.2348957993259866e+00 0 0 0
749 2 1.6171257523991510e+01 4.1172829223838159e+00 3.7218131334915068e+00 0 0 1
236 2 1.4277298078360200e+01 1.1853100986310370e+01 4.1448056576134569e+00 0 0 0
462 2 4.5536915991815849e+00 3.8913107383694081e+00 7.0091968576776065e+00 0 1 0
1786 1 1.7321903454981160e+00 1.6895523634376950e+01 7.0708726936925146e+00 0 0 1
917 2 5.7828422038223080e+00 5.8169755309560252e+00 1.9881938460199937e+00 0 0 1
1606 1 6.3302064946873635e+00 1.1653675892616427e+01 8.0683461688540925e-01 0 -1 0
1576 1 1.9335182169081101e+01 7.0848851579984338e+00 4.2094654994205998e+00 0 0 1
99 2 6.6388389979656575e+00 1.5254809779752907e+01 7.3414962017429994e+00 0 0 -1
7 1 7.5984480995354431e-02 1.1858286114363981e+01 8.4682991161075325e+00 0 -1 0
737 2 1.8809178189642179e+01 4.1522624549713258e+00 4.7369497802697689e+00 0 0 0
519 2 1.9494081022991896e+01 1.4859046227814964e+01 4.8577384497727332e+00 0 0 0
225 2 4.2789616316115548e+00 1.9240380267892714e+01 2.5263328923950623e+00 0 0 0
1162 1 1.2051718014578308e+01 1.8616076511551157e+01 6.8738498371575618e-01 0 0 1
906 2 1.3538162110700576e+01 8.9631838903980476e+00 7.8172824094785209e+00 0 0 0
1537 1 1.8358514377841073e-01 1.4493331441936421e+01 2.5187450710320993e+00 0 0 1
1371 2 1.1997209054528557e+01 5.4064499001200819e+00 9.5865117216410258e+00 0 0 1
267 2 1.4380567393577831e+01 4.6995305749564080e+00 9.0226451967188641e+00 0 0 0
486 2 1.1219955984987042e+01 8.0382010157190642e+00 1.9580288202647771e+00 0 0 0
1149 2 6.5530001410561214e+00 1.8787409860081571e+01 9.7610338027750352e+00 0 0 -1
47 2 1.1964962892912101e+01 1.6077252555901694e+01 5.5414850490835104e+00 0 -1 0
708 2 5.0240016659189664e+00 8.9006776242405454e+00 9.6596338546673319e+00 0 0 0
1615 1 1.4047536226586197e+00 7.4133626795458989e+00 8.2850826264389159e+00 0 1 0
1182 2 1.7991827882321967e+01 5.0008558678615387e+00 9.4475133966144380e+00 0 1 0
1528 1 3.8179628851630665e-01 1.3238945359438294e+00 8.7230061374161050e+00 0 0 0
726 2 1.8586112110799938e+01 3.1119755271937106e+00 8.3716076128606485e+00 0 0 0
1153 1 1.9570690792820770e+01 1.3292402421900317e+01 4.2998700529669076e+00 0 1 0
1549 1 1.4254849560132421e+01 1.4573568703135718e+01 2.1428534360522677e+00 0 0 1
1302 2 4.4438837163787044e+00 2.6068135143264781e-01 9.5354892191852443e+00 0 1 0
1561 1 2.7299372589956032e+00 1.8574684500626635e+01 5.0871245203752826e+00 0 0 0
1304 2 5.6780498576820069e+00 1.5783810800731574e+01 4.5724850699496473e+00 0 -1 1
714 2 2.1994500521133795e+00 3.3525591959556111e+00 3.6937828871584316e-01 0 1 1
443 2 7.5393388225936508e+00 9.2934166886897920e+00 1.8508433691954744e+00 0 1 0
30 2 2.0453947047364336e+00 1.2664523166274590e+01 8.3625620045452180e+00 0 -1 0
1128 2 6.5768455289287866e+00 2.8610638475477708e+00 5.8487500388601772e+00 0 1 1
896 2 1.4022346223941947e+01 1.5600092004177892e+01 6.2492444744096574e+00 0 0 0
1782 2 1.1311380216258758e+01 1.2239023072615792e+01 8.4682418370978478e+00 0 0 0
1818 2 1.8342962155405196e+01 1.8711503351972926e+01 2.3158432794953492e+00 0 1 1
1543 1 6.1497639295099749e+00 8.6807396538680930e+00 4.2329981760637692e+00 0 0 0
1312 1 5.5611326098979197e-01 3.7753264779365860e+00 3.7464758777419616e+00 0 0 1
1122 2 1.0311310038333797e+01 1.5544652223022172e+01 4.6617008758616507e-01 0 0 0
715 1 1.8839965607290342e+01 2.9689594518344364e+00 8.9693595280548655e-01 0 0 1
102 2 1.8628814943662579e+01 1.9677494679144321e+01 4.8476044855942604e+00 0 0 0
913 1 1.7954056653265237e+01 1.8051807357704636e+01 5.0564442736037805e+00 0 0 0
235 1 1.3458463616392411e+01 1.1351352058962703e+01 4.0373097902069031e+00 0 0 0
60 2 5.9257279123393780e-01 5.6830329442884393e+00 8.4644245867727701e+00 0 0 -1
693 2 1.4223464493020066e+01 1.5181683894699303e+01 9.8208823613841325e+00 0 0 0
1084 1 3.2858984317596382e+00 9.1176610562740770e+00 3.0376360066076948e+00 0 0 0
1375 1 9.8206948516682147e+00 2.8533845029504161e+00 9.5781990486300028e+00 0 1 1
884 2 8.5197040140073099e+00 7.2408885799159934e+00 4.9442295069809035e+00 0 0 0
269 2 1.4688693813816315e+01 7.2695166127725672e+00 7.0638408232394423e-01 0 0 0
934 1 9.0397414399242120e+00 1.2538068126811961e+01 2.8763278501751324e+00 0 1 1
750 2 1.5592406307552865e+01 5.3207266276287637e+00 4.5638151738911965e+00 0 0 1
1137 2 4.4995426566556747e+00 1.1261641454631519e+01 6.3932231424434640e+00 0 1 0
88 1 8.8658727723688884e+00 1.5551735894794648e+01 3.7195783251743499e+00 0 0 0
1753 1 2.7872572076701765e+00 3.4156059650162520e+00 9.9059885369587199e+00 0 1 0
743 2 1.9678135464054517e+01 1.1129623058400238e+01 7.0026386709150454e+00 0 -1 0
1314 2 4.1327087081546032e-01 2.9288522223764351e+00 3.2294029908363329e+00 0 0 1
1359 2 1.4598642485299207e+01 1.8404849473781198e+01 9.4510656047304504e+00 0 0 0
667 1 2.5715854150561333e+00 1.5071335868943882e+01 3.7178435050871839e+00 0 0 0
227 2 7.9631427893182649e-01 1.1817556499617233e+01 1.1215058898578119e+00 0 0 0
710 2 1.6218972578632346e+01 1.5684884699270929e+00 6.3881508353012793e+00 0 0 0
1816 1 1.7465893202486221e+01 1.8937475875329124e+01 1.9481558094006610e+00 0 1 1
1140 2 5.1104312931281726e+00 7.5468499744563033e-01 5.0750597271869555e+00 0 0 1
1322 2 2.5300140614011979e+00 1.0179716031222664e+01 6.6876790562997774e+00 0 0 1
492 2 9.6146888977103444e+00 6.2171734056934946e+00 1.4792839533761863e+00 0 1 0
1376 2 9.8770566816048522e+00 3.8400831187984057e+00 9.7872640786112797e+00 0 1 1
537 2 1.4989918341698155e+01 1.3808470814437181e+01 3.3023176495758486e+00 0 0 0
273 2 1.3991276043406344e+01 4.5153495587687837e+00 2.8938058038588297e+00 0 0 1
459 2 1.7770465724603554e+01 7.7782304634267945e+00 8.9385019202897755e+00 0 1 0
507 2 2.8480127655355250e+00 5.3154810089013091e+00 1.0200446776160046e+01 0 0 1
1086 2 2.9429759427138764e+00 9.4532117874788018e+00 2.1880199014177983e+00 0 0 0
650 2 4.3312176458323890e+00 1.7198051254412583e+01 8.6965712234404844e+00 0 -1 0
665 2 2.1767192480790807e+00 3.2242617556682522e+00 7.0465444577346705e+00 0 0 0
941 2 9.4679104553530689e+00 3.6547694438092182e+00 4.0721963741143421e+00 0 1 1
738 2 1.9437794334332999e+01 5.6201421684971393e+00 4.9007174450938082e+00 0 0 0
286 1 1.5708974306897431e+01 7.6212117023422739e+00 3.3548308058562508e+00 0 0 0
1551 2 1.3574638137363374e+01 1.4113789531337686e+01 1.5034532131789344e+00 0 0 1
683 2 1.6410753721254445e+00 1.4564796545162652e+01 5.1348026351097147e+00 0 -1 0
527 2 1.8102927279084955e+01 1.0312791986272249e+01 2.3966710753576690e+00 0 0 0
1154 2 1.8795036471235878e+01 1.3077540997950218e+01 3.7027730694135159e+00 0 1 0
1792 1 1.3181330887247324e+01 1.6904874823710234e+01 2.4921580544772937e+00 0 -1 1
1756 1 6.9236242862853903e+00 1.4617785638075171e+01 1.6728710740298647e+00 0 0 1
1826 2 1.9945365481475164e+01 1.7586747118123505e+01 5.2488978810661335e-01 0 0 1
31 1 2.0196774422337112e+00 1.8225915067660100e+01 3.4041074880541977e-01 0 -1 0
1395 2 1.3259225357030354e+01 1.7664667991947494e+00 6.9670334630359720e+00 0 0 0
1607 2 5.3857235042432574e+00 1.2008347027363861e+01 7.8988542510689796e-01 0 -1 0
1771 1 1.3101480357371832e+01 1.0614340479435088e+01 1.4800476325272784e+00 0 0 0
271 1 1.3192738203777768e+01 4.7445243204823138e+00 2.3260932004307953e+00 0 0 1
1742 2 4.6312357693980066e-02 4.1258406751478001e+00 9.9452994420760934e+00 0 0 0
276 2 8.9851803654012983e+00 8.1568741742176361e+00 2.9205211758592906e+00 0 0 0
1815 2 1.7648994383349581e+01 6.6453831517504751e+00 1.0345150861858592e+00 0 1 1
266 2 1.5892405944114255e+01 4.5016787938507736e+00 9.0314320083136455e+00 0 0 0
1315 1 6.5112873598898668e-02 1.4736377402901457e+01 9.2459832774660633e+00 0 -1 0
260 2 1.0162966139591333e+01 1.0623287989171546e+01 4.8981713621735903e+00 0 0 -1
1562 2 1.9891268719893600e+00 1.9250461893105410e+01 4.9330796889234465e+00 0 0 0
293 2 1.6515375694718912e+01 7.3458484745880090e+00 6.0935355284098867e+00 0 -1 -1
1525 1 7.7527311460728914e+00 5.2622816058872215e-02 4.8668101721250778e+00 0 1 1
64 1 1.7195549919433049e+01 1.0425091762485680e+01 5.5776513024342007e+00 0 0 -1
1529 2 4.0561398018868100e-01 2.8295570422146804e-01 8.6207071741026695e+00 0 0 0
485 2 1.2093746294466291e+01 9.2826337339255733e+00 2.1283965953076982e+00 0 0 0
454 1 4.2539989969749836e+00 4.3920589506002999e-01 6.5644917201044608e+00 0 1 0
971 2 1.4078391642360190e+01 6.4826733372448748e+00 6.5171041051976770e+00 0 0 0
1618 1 1.4735398337889356e+01 1.8644186200160970e+01 6.6504246397727425e+00 0 -1 0
701 2 6.9468486461555150e+00 9.9812801448266519e+00 6.8599384640221777e+00 0 0 -1
1819 1 1.1073336286571614e+01 9.0123455701064188e+00 4.9043240364130085e+00 0 0 0
717 2 1.9350715488561384e+01 3.3279695409627892e+00 1.5720221004672108e-01 0 0 1
229 1 1.4618204391668241e+00 1.1917525172211352e+01 2.7636862248432568e+00 0 0 0
1568 2 7.7154881754171285e+00 1.7539317768191079e+01 1.7968761681595384e+00 0 -1 1
288 2 1.6501429858083625e+01 8.0957031020009058e+00 3.0555449373040169e+00 0 0 0
436 1 1.0183839089395034e+01 1.3771752287664651e+01 7.2457001458503612e-01 0 0 0
685 1 3.3498730294184300e+00 4.1685850359994729e+00 4.1334097234129477e+00 0 1 0
270 2 1.4010215290187848e+01 6.0229464627634428e+00 1.5239260977809255e+00 0 0 0
1324 1 1.6210579687571339e+01 7.8056068928744327e-01 3.6057996755147106e+00 0 0 0
1788 2 1.3060163922455530e+00 1.6034202312406023e+01 6.8286170233999393e+00 0 0 1
696 2 1.5728098624315550e+01 1.4027004789401905e+01 7.2636454779909032e+00 0 -1 0
654 2 3.2507883049441997e+00 5.9111335033088457e+00 1.4828458617181557e+00 0 0 0
1619 2 1.4383532681969994e+01 1.8542847818762947e+01 7.5580259453494349e+00 0 -1 0
921 2 3.7637798145841250e-01 1.7618547179671545e+01 3.5440925534224355e+00 0 0 0
684 2 1.9674834692346614e+00 1.3940623105297160e+01 6.4796219722031001e+00 0 -1 0
1142 2 1.7768415652749578e+01 1.2818112537879159e+01 1.8935345504723244e+00 0 0 0
1367 2 1.5867768153751243e+01 1.5898640959643165e+01 1.8976791963418447e+00 0 0 1
748 1 1.5359572893487714e+01 4.4982197540313615e+00 4.1316312597592013e+00 0 0 1
1093 1 1.3903038043677274e+01 8.9360133115977600e+00 5.0831041073796523e+00 0 2 0
100 1 1.9081233391723853e+01 7.9934386281691883e-01 4.6704766013240171e+00 0 0 0
1534 1 1.0047061482051966e+01 5.4516145559127089e+00 9.5066093889242360e+00 0 -1 0
1794 2 1.2255981347496423e+01 1.6668535115686549e+01 2.8313355260143762e+00 0 -1 1
484 1 1.1871816282577644e+01 8.4271609241967447e+00 2.5903730871332016e+00 0 0 0
1762 1 -9.0577667222169200e-02 5.8456258310591638e+00 1.9721685660999964e+00 0 1 0
1316 2 -2.7571605057495618e-02 1.3898789941981807e+01 8.8282166444146295e+00 0 -1 0
442 1 6.5995170438097590e+00 9.0670725594093451e+00 1.6358797931359979e+00 0 1 0
1747 1 1.4244361958500107e-01 1.0036372965008121e+01 4.4519759121903659e+00 0 0 1
456 2 3.7303441583292383e+00 1.9539146661749903e+01 5.9500445739735186e+00 0 0 0
1129 1 6.4863105044358518e+00 1.2620512168340509e+01 3.9704879863658045e+00 0 0 0
479 2 1.4834468008812800e+01 1.7922879853372358e+01 5.1957408361612316e+00 0 0 -1
448 1 1.6126224223237458e+01 4.1580315570163915e+00 8.6520843327530317e-01 0 1 0
670 1 4.1284660235556707e+00 1.1691336344722458e+01 3.2007074651908676e+00 0 -1 0
652 1 3.8223900956598991e+00 6.1121472929612066e+00 2.2300299577280334e+00 0 0 0
895 1 1.4938350568380466e+01 1.5324815956864326e+01 6.0272140518959123e+00 0 0 0
1130 2 6.0592808788183117e+00 1.3484920815329904e+01 4.2107980822030742e+00 0 0 0
1159 1 1.1112529266598075e+01 1.9138379470605503e+01 6.4393722029177907e+00 0 0 0
1526 2 7.9181042964584059e+00 1.9248082037140296e+01 5.6989181818601162e+00 0 0 1
686 2 3.8748071503786159e+00 3.7093966253147328e+00 3.4447697231215972e+00 0 1 0
940 1 9.5034756811093395e+00 3.1006988297400939e+00 4.9032061552615431e+00 0 1 1
74 2 1.8899707308916643e+01 4.8296103178456526e+00 6.9063936877130860e+00 0 0 0
1824 2 1.1784423239366447e+01 1.3375200802424088e+01 5.7548180444251851e-01 0 0 1
1814 2 1.7784588926725668e+01 5.2435440925248624e+00 1.6161653510756535e+00 0 1 1
1139 2 6.1329151575464813e+00 6.5846550294914374e-01 3.9907832016017410e+00 0 0 1
1620 2 1.5532752928389741e+01 1.9192853009082050e+01 6.7150908743499533e+00 0 -1 0
73 1 1.8793878337050206e+01 4.9692803525424418e+00 7.8883479993617760e+00 0 0 0
891 2 3.0801745367996056e+00 1.1917520740365109e+01 8.8122199558686987e-01 0 0 0
533 2 1.7659957339442293e+01 9.5391349011993078e+00 6.5501148228728001e-01 0 1 0
916 1 6.7024850408719647e+00 5.4595158022649546e+00 1.8255532944544612e+00 0 0 1
455 2 3.8354193859427523e+00 1.3247962336257619e+00 6.5536266514506165e+00 0 1 0
653 2 3.6469517398231170e+00 5.4771756202854567e+00 2.9352901817481425e+00 0 0 0
919 1 6.0418875491306367e-01 1.6927865206768953e+01 4.2159319550467087e+00 0 0 0
466 1 1.3579447068223654e+01 1.9457665668462554e+00 9.9417041936347577e+00 0 1 0
265 1 1.5168543208848252e+01 4.7040866549419240e+00 8.4600613551323320e+00 0 0 0
281 2 9.7451973620215444e+00 3.9969918605954184e+00 1.6049637246435589e+00 0 0 0
320 2 6.6960038734169425e+00 1.2354672912889292e+01 9.3278562521802488e+00 0 -1 1
230 2 2.3828859155726629e+00 1.1971137458854646e+01 2.9697771540579789e+00 0 0 0
1147 1 7.5013659305968678e+00 1.9033355696479060e+01 9.6976336183503271e+00 0 0 -1
1776 2 8.0681945546336813e+00 1.5838230104241543e+01 5.5201000394093542e+00 0 0 1
1317 2 8.6902601344438835e-01 1.5120851513088962e+01 9.0004298165301364e+00 0 -1 0
1085 2 3.3887459803242339e+00 8.2099776389012877e+00 2.8994211660519160e+00 0 0 0
1821 2 1.1876697195861230e+01 8.7601591478377863e+00 5.3580382638633237e+00 0 0 0
12 2 6.1583181541560095e-01 1.8536376494291552e+01 1.3665915747485693e+00 0 -1 0
666 2 1.0485778402732933e+00 2.4075979252673458e+00 7.7332648952943712e+00 0 0 0
905 2 1.5073856134677870e+01 8.7846681491640233e+00 8.2196815597134236e+00 0 0 0
1300 1 4.7317994109190433e+00 1.9226398216940979e+01 9.0678907899295584e+00 0 0 0
893 2 5.6007734454194908e+00 3.1233126179013895e+00 2.1870371032140357e+00 0 0 0
741 2 6.4191579680989355e+00 1.8214425813903308e+01 4.1124848514979524e+00 0 0 1
19 1 1.4723696565101985e+00 7.0283392020521926e+00 5.3331655995917568e+00 0 0 0
272 2 1.2519080089115146e+01 4.9197884421453351e+00 2.9820029594878572e+00 0 0 1
936 2 8.1247242870053231e+00 1.2699839237683832e+01 3.1846620553396687e+00 0 1 1
90 2 8.6334542055680572e+00 1.6462471958771857e+01 3.4000271312905204e+00 0 0 0
1608 2 6.3203352794873329e+00 1.0742919361625491e+01 1.1705792226764655e+00 0 -1 0
970 1 1.5044081054351114e+01 6.5644522875856559e+00 6.6114439946330172e+00 0 0 0
1757 2 6.1503549953978647e+00 1.5256477041233905e+01 1.7217428880575436e+00 0 0 1
1339 1 1.3067202467668873e+01 1.3314232101226331e+01 7.8883332105136743e+00 0 0 1
480 2 1.4389217036628699e+01 1.7611076194443520e+01 3.6526403441712296e+00 0 0 -1
246 2 5.5332851178627083e+00 4.7815852891547648e+00 9.1806858194371337e+00 0 1 0
1535 2 9.4960026171291734e+00 5.5913027160038427e+00 8.7173780545570345e+00 0 -1 0
470 2 1.8219595805439774e+01 1.6919419869334277e+01 7.7669437239275547e+00 0 0 -1
473 2 8.5661208046014394e+00 5.9139048788882951e+00 6.7222067533424488e+00 0 1 0
1325 2 1.5658366592872971e+01 1.3100945423952344e+00 2.9647992713278311e+00 0 0 0
76 1 1.7956184540326333e+01 3.2345101431911654e+00 3.4674345583562158e+00 0 0 0
1126 1 6.9781683190577217e+00 3.6316063419267834e+00 5.3512712480506517e+00 0 1 1
287 2 1.5472373815298235e+01 7.1059116698292319e+00 2.5690839228683964e+00 0 0 1
702 2 7.7688296946816422e+00 8.6310774300558872e+00 6.6684964060315544e+00 0 0 -1
1579 1 -1.9381573951659700e-01 1.8521395190421774e+01 8.3820556056755091e+00 0 -1 0
536 2 1.5375616156426322e+01 1.3797787897010261e+01 4.7704658684064958e+00 0 0 0
914 2 1.7124665825266717e+01 1.7937604770820954e+01 4.6225665336831661e+00 0 0 0
1164 2 1.1471110382637894e+01 1.7810966939076145e+01 5.7300653669904700e-01 0 0 1
903 2 1.1753218895167178e+01 6.8338464338928224e+00 3.8189637096988087e+00 0 1 0
968 2 8.8498057920796267e+00 1.0964685481368148e+01 2.2944003683019951e+00 0 0 0
1373 2 1.1759592669293935e+01 4.4571824938838818e+00 8.9557427511990939e-01 0 0 1
1569 2 8.4351351086677830e+00 1.8824822895108387e+01 2.2764769059877246e+00 0 -1 1
682 1 1.2169552628166223e+00 1.4234065813859722e+01 5.9195790722233896e+00 0 -1 0
1617 2 7.3052518833418989e-01 7.8985675429161102e+00 8.7475858408683642e+00 0 1 0
1337 2 1.5211562809402016e+01 2.8851524235423893e+00 1.3749549520359301e+00 0 0 0
739 1 6.1502346160749193e+00 1.7429503849997708e+01 4.6050569255014642e+00 0 0 1
1155 2 1.9656013945945592e+01 1.2616483790741970e+01 5.0476946563041754e+00 0 1 0
687 2 2.3709392218537073e+00 4.0295011814888051e+00 4.0413756092088011e+00 0 1 0
706 1 4.4309931789969470e+00 9.6717091861593119e+00 9.8603588415957972e+00 0 -1 0
694 1 1.6520193408068671e+01 1.3889880861704498e+01 7.8008603343643976e+00 0 -1 0
901 1 1.1355592164985257e+01 5.9853955053414074e+00 3.9882975252290898e+00 0 1 0
1094 2 1.4342174701499182e+01 9.1126265113475942e+00 5.9335116734063780e+00 0 2 0
1127 2 7.8934589503259964e+00 3.3226217781305256e+00 5.1547451923890462e+00 0 1 1
677 2 8.4352120206302605e-01 8.6493109111881701e+00 2.1508074208649774e+00 0 0 0
674 2 1.0506091296510066e+01 1.4217177456908439e+01 8.0185577166451143e+00 0 -1 0
1793 2 1.3002254351451487e+01 1.7623981160824044e+01 1.8037792767043443e+00 0 -1 1
871 1 1.1426789723875975e+01 1.5584082800697622e+01 3.9586828275044810e+00 0 0 0
453 2 4.1984746118623466e+00 9.5309311621963477e+00 8.0432914206587185e+00 0 -1 -1
744 2 1.8524827567674496e+01 1.0813161317719775e+01 5.8436096030192184e+00 0 -1 0
21 2 5.1035422123332841e-01 6.9051403768026169e+00 5.4306617507267267e+00 0 0 0
1184 2 8.6477792203536357e+00 9.7471530477561750e+00 8.2557079832082021e+00 0 0 0
491 2 9.3854079254521512e+00 6.8929320993461873e+00 9.4106949120730463e-02 0 1 0
1089 2 2.9200563642759443e+00 6.8444094355688501e+00 6.2457921537118208e+00 0 1 0
237 2 1.3590525842547793e+01 1.0489024089886422e+01 4.5126414693708146e+00 0 0 0
1544 2 5.5788880608683797e+00 9.1083028335349496e+00 4.8677448422740204e+00 0 0 0
1817 2 1.7144099231506015e+01 1.9625616087539889e+01 2.6059780053751069e+00 0 1 1
292 1 1.7336482238869682e+01 7.7792283848138180e+00 5.8891365384267331e+00 0 -1 -1
1580 2 2.8832621944015591e-01 1.8027846342281158e+01 7.6914214669779097e+00 0 -1 0
1138 1 5.2136163974545733e+00 7.7986358275469414e-01 4.0979741949613526e+00 0 0 1
886 1 1.4454048943522267e+01 1.1596890037011875e+01 9.4339995347351362e+00 0 0 0
1125 2 1.5126070283274611e+01 3.4759371598807154e+00 7.1550715228461623e+00 0 1 0
888 2 1.4525330187793159e+01 1.0766675130876731e+01 8.8313010465923210e+00 0 0 0
1566 2 8.1853826945981254e+00 1.8864701420262413e+01 8.0501944629838960e+00 0 0 0
1389 2 3.6226279397372241e+00 1.3529903341443564e+01 9.4828720136294447e+00 0 0 0
77 2 1.8248701283649758e+01 3.2576315399720426e+00 2.5444901928564274e+00 0 0 0
1131 2 6.6755040826340482e+00 1.2138396419515812e+01 4.8395414856407255e+00 0 0 0
959 2 1.1018064525202890e+01 8.6052286233447024e+00 8.2776506846256233e+00 0 1 0
935 2 9.4494088974151023e+00 1.2211920948900739e+01 3.6883272811115138e+00 0 1 1
700 1 7.3104185314845438e+00 9.1773143843765013e+00 7.3021950352231064e+00 0 0 -1
1341 2 1.3705445476436593e+01 1.2682141136033376e+01 8.3474697607861756e+00 0 0 1
1554 2 1.2097808931382040e+01 6.0834080769408443e+00 5.7863299356132369e+00 0 0 1
231 2 1.1342495699943373e+00 1.1130499912341834e+01 3.3224478567233078e+00 0 0 0
282 2 8.2481568335386832e+00 4.0250156422682899e+00 1.8083254943004374e+00 0 0 0
1781 2 1.0212702400094766e+01 1.2387602312947941e+01 9.6007504645576880e+00 0 0 0
1111 1 1.0879757909419395e+01 3.7728281020467049e+00 7.1107385398274880e+00 0 1 0
1112 2 1.1554876479580299e+01 2.9581129676172222e+00 7.2008920523102766e+00 0 1 0
736 1 1.9382422740738754e+01 4.6964633183254829e+00 5.3406631900566914e+00 0 0 0
268 1 1.4818498233320708e+01 6.4798844605779697e+00 1.1888684381641761e+00 0 0 0
1558 1 1.2176503703271957e+01 1.4274250729986595e+00 1.8919227628498956e+00 0 1 1
450 2 1.5753683299945614e+01 5.0610382565301411e+00 7.0059768166724723e-01 0 1 0
675 2 1.0985668316784263e+01 1.5604967164041115e+01 7.5561577579782409e+00 0 -1 0
1806 2 8.9613936579106426e+00 7.4895769236625387e-01 6.9792768248751424e-01 0 1 1
720 2 5.9054352940952137e+00 6.7863229765979272e+00 8.8524908573817687e+00 0 0 -1
472 1 8.2390621747610346e+00 5.1670867873689499e+00 7.2418914399113641e+00 0 1 0
1578 2 1.9051197370918604e+01 7.2207268267414007e+00 3.2932813212920782e+00 0 0 1
452 2 4.1190556524898545e+00 8.6698839426707650e+00 6.8237212880590601e+00 0 0 -1
1321 1 1.5793208466008353e+00 1.0167032348439136e+01 6.9846501182062450e+00 0 0 1
261 2 1.0544138146193102e+01 1.2162385039139739e+01 5.3714653197059947e+00 0 0 -1
1372 1 1.1202276032758931e+01 3.7180106748283679e+00 4.8517657908104256e-01 0 0 1
1601 2 1.5186758081877850e+01 1.4122737788362810e+01 3.1562729960997227e-01 0 1 1
72 2 5.3292059041271056e+00 8.1191014508665411e+00 2.8616350358760623e-01 0 -1 0
873 2 1.1789362240363857e+01 1.4697394790647255e+01 4.0173708865537785e+00 0 0 0
883 1 8.9406715063511299e+00 7.4651258642036167e+00 5.8269385032687584e+00 0 0 0
691 1 1.3299375203827559e+01 1.5530630179313169e+01 9.9045943370896463e+00 0 0 0
1326 2 1.5551319022740746e+01 2.5763566336792065e-01 3.9668361515134785e+00 0 1 0
958 1 1.1886599167403929e+01 8.2503693028857317e+00 8.0124090805729065e+00 0 1 0
692 2 1.3471302846542747e+01 1.6405102998858393e+01 9.4439943221899885e+00 0 0 0
678 2 2.2497565474945969e-03 8.8635064995667516e+00 3.5083123839601020e+00 0 0 0
742 1 1.9497975015374365e+01 1.1145527484648998e+01 6.0421006013924163e+00 0 -1 0
875 2 6.1866175772223615e+00 5.3265108996397315e+00 5.0530719984146790e+00 0 0 0
1161 2 1.0286830249851660e+01 1.8909600467302894e+01 6.9280009269720857e+00 0 0 0
876 2 5.2911140709004520e+00 6.4005042647959831e+00 5.8706964903912624e+00 0 0 0
672 2 5.1264030201292323e+00 1.1902968701622731e+01 3.2920590210847500e+00 0 -1 0
894 2 4.8909532566978742e+00 2.1253592987990628e+00 3.0936725947727548e+00 0 0 0
1336 1 1.4821783874770263e+01 2.0305031947629724e+00 1.6446166519503305e+00 0 0 0
740 2 6.6233224126546988e+00 1.7434429034957173e+01 5.4586236283654479e+00 0 0 1
872 2 1.0449537515224367e+01 1.5497086491751473e+01 3.9080386087617538e+00 0 0 0
1303 1 5.2067960583572326e+00 1.4944036624829474e+01 4.8190353407687105e+00 0 -1 1
1355 2 5.2391853210081969e+00 1.6877887261678367e+01 6.8939597819195353e-01 0 -1 2
1616 2 1.9810915502183377e+00 7.0481130637644078e+00 9.0625989164803471e+00 0 1 0
1396 1 1.6481032459497470e+01 8.6124580343853161e+00 9.5090260449979738e+00 0 -1 1
1374 2 1.1627479428419564e+01 2.9305735135256450e+00 8.8023073458869106e-01 0 0 1
937 1 1.8295748398666474e+00 9.4871101347628013e+00 6.1412241828709213e-01 0 0 0
1398 2 1.6692282382877231e+01 9.4865348244277818e+00 9.8958674344882613e+00 0 -1 1
78 2 1.8088887050728822e+01 2.2847854567757211e+00 3.7811398513868264e+00 0 0 0
1777 1 8.6360667445401851e-01 6.6712496261243481e-01 5.1621343457953150e+00 0 1 0
66 2 1.6722160408120303e+01 1.0592748878752790e+01 6.3882937871176875e+00 0 0 -1
1121 2 9.7938875718389351e+00 1.6705522391066999e+01 1.2078294366959001e+00 0 0 0
58 1 -1.3228038852546808e-02 4.9087013684406289e+00 8.3522506779568300e+00 0 0 -1
314 2 1.0173705762359843e+01 1.6898892268315666e+00 4.5216052755708285e+00 0 1 0
887 2 1.5417648851661971e+01 1.1855585495093925e+01 9.5238108428775128e+00 0 0 0
904 1 1.4466578348902681e+01 9.3695960171604824e+00 7.7071402674281275e+00 0 0 0
251 2 1.6246060244253933e+01 1.4441986364157975e+01 9.5229185580407751e+00 0 -1 0
662 2 9.5465575305296446e-01 1.8787088358579918e+00 1.7537709816563847e+00 0 0 1
1545 2 6.1922054048998731e+00 7.7538224454018261e+00 4.5322166863471471e+00 1 0 0
1358 2 1.3044878884853089e+01 1.8471987390146833e+01 9.8607185063554450e+00 0 0 -1
469 1 1.8096121476642079e+01 1.7892568541033565e+01 7.9465660762175832e+00 0 0 -1
48 2 1.2022690732828501e+01 1.7366398117652526e+01 6.4486796368149424e+00 0 -1 0
474 2 8.0163427809279071e+00 4.4516648942705777e+00 6.6271088805532834e+00 0 1 0
1136 2 4.0380908956419468e+00 1.2252939371142233e+01 5.2231471537495695e+00 0 1 0
1775 2 8.9084392906846706e+00 1.5610038579158678e+01 6.8285314825465004e+00 0 0 1
942 2 1.0138220283075087e+01 3.3459467731648767e+00 5.6300840280087217e+00 0 1 1
97 1 5.8103253602404337e+00 1.4954533980284650e+01 7.6926182727106234e+00 0 0 -1
46 1 1.2315665185225754e+01 1.6482247197759730e+01 6.3657495825455719e+00 0 -1 0
89 2 8.2025473299757348e+00 1.5001944084182171e+01 3.2791846928544492e+00 0 0 0
1123 1 1.4911691279502090e+01 2.7961310234827432e+00 6.4908060894231259e+00 0 1 0
28 1 2.7547004656274274e+00 1.3168830467518111e+01 7.9884638343134444e+00 0 -1 0
526 1 1.8063934194207281e+01 9.3155271752688176e+00 2.2018596925448755e+00 0 0 0
1774 1 7.9941085970315466e+00 1.5858128226352623e+01 6.4661319491186822e+00 0 0 1
889 1 3.6633713676874717e+00 1.2437892702660021e+01 3.5966378548622879e-01 0 0 0
1805 2 8.7237022200023251e+00 1.6334033878031531e+00 1.9383498114645168e+00 0 1 1
444 2 6.1192286660676247e+00 9.0359963284357505e+00 2.5744933980853051e+00 0 1 0
275 2 8.0061492937564331e+00 7.0147278768510031e+00 2.8418566184050382e+00 0 0 0
668 2 3.5124246488866944e+00 1.4950755505686502e+01 3.8909214638874197e+00 0 0 0
897 2 1.5139957671217628e+01 1.6114119792979228e+01 5.5025294169238173e+00 1 0 0
1780 1 1.0377710493585036e+01 1.2413729569395841e+01 8.6203077818804577e+00 0 0 0
1313 2 4.3677876511718960e-01 4.5230213206628544e+00 3.1510375376903608e+00 0 0 1
972 2 1.5238088490398011e+01 5.8036546115658538e+00 7.2520817132533288e+00 0 0 0
244 1 5.5663332979818216e+00 5.0990566819114544e+00 8.2880648442406013e+00 0 1 0
1309 1 1.6165382097747237e+01 1.8834179509781240e+01 9.5767538853917529e+00 0 0 0
1356 2 4.3226192024659067e+00 1.7118475669369698e+01 1.7716283949799760e+00 0 -1 2
458 2 1.9361727533909111e+01 7.7332341897665113e+00 8.4467315306313306e+00 0 1 0
1098 2 7.2160815336893886e+00 1.2108119600648461e+01 7.1231601563255253e+00 0 1 0
517 1 1.9508365101237505e+01 1.5823949932971392e+01 5.1556636261749773e+00 0 0 0
661 1 1.4274416651681854e-01 1.6146999913987548e+00 2.1783185284865580e+00 0 0 1
65 2 1.7105611323417612e+01 9.4379038696650230e+00 5.3791893880461377e+00 0 0 -1
1106 2 1.0919499047696466e+00 5.3443135615487405e+00 4.7741469436926642e-01 0 1 1
1338 2 1.3931433903856034e+01 2.1358013169136800e+00 1.7795173638048438e+00 0 0 0
528 2 1.8992448717419009e+01 8.9914014997427287e+00 2.1962179795068226e+00 0 0 0
1095 2 1.4485916614294476e+01 8.3642256651547555e+00 4.5436060233858555e+00 0 2 0
285 2 1.7098473129855293e+01 2.0309445461553213e+00 1.0056461371002980e+01 0 0 0
1773 2 1.3867440312266295e+01 1.0134244954619115e+01 1.2170499462889761e+00 0 0 0
10 1 -1.2199043759392070e-01 1.8784696134850378e+01 1.9991316491762254e+00 0 -1 0
1563 2 2.3576949794966220e+00 1.7850967924129680e+01 5.5202873059534419e+00 0 0 0
315 2 1.0865465857240922e+01 3.5993359961601618e-01 4.8325680141487863e+00 0 1 0
1758 2 6.4487896386329320e+00 1.3776375153162771e+01 1.5920099476609093e+00 0 0 1
319 1 7.2820106099358073e+00 1.2849029101981770e+01 8.6158151013815409e+00 0 -1 1
483 2 1.0216689667080015e+01 1.5998830368377298e+01 9.7510775315651035e+00 0 0 0
1778 2 1.0317113482478213e+00 1.5161440766392464e+00 5.6395727923224976e+00 0 0 0