LAMMPS data file via write_data, version 3 Mar 2020, timestep = 25000000

1008 atoms
2 atom types

2.1196188180084619e-01 1.8187593118044880e+01 xlo xhi
4.5914848198815861e-02 2.2524474151653820e+01 ylo yhi
1.9242368795603149e-01 1.9313292311881568e+01 zlo zhi
-1.8071248955330261e-02 -6.5857608681915734e+00 3.1396759184598916e-02 xy xz yz

Masses

1 16
2 2

Atoms # atomic

1 1 6.6222787481366820e+00 1.1781861069482440e+00 4.7367439042714619e+00 0 0 0
272 2 1.0183639099085644e+01 9.7522574279297682e+00 1.3395528377203003e+00 0 0 0
3 2 6.7366463198802835e+00 1.4980763254823477e+00 3.7751016801727171e+00 0 0 0
4 1 3.8839985898285967e+00 1.4436188889761288e+00 5.2270993639668317e+00 0 0 0
152 2 7.5636533553826961e+00 7.3523543192675389e-01 7.6519557477830551e+00 0 0 0
6 2 4.0640775656058725e+00 1.8598290841998522e+00 6.1619308595155351e+00 0 0 0
7 1 -3.5724159994932747e-01 6.8880313979312700e+00 5.0879757918904929e+00 0 0 0
8 2 -4.5413078169190690e-01 6.4747105625665267e+00 6.0133997104472616e+00 0 0 0
9 2 -1.0778517920123993e+00 7.5501679210496864e+00 5.0288313577105015e+00 0 0 0
10 1 2.3869002368306362e+00 6.5481865933601737e+00 4.8273305040288834e+00 0 0 0
11 2 1.4843031700112863e+00 6.8891689966221943e+00 4.8324703695875346e+00 0 0 0
12 2 3.0188391480564949e+00 7.2780567956632405e+00 5.0450309906667927e+00 0 0 0
210 2 3.8800024425934132e+00 9.6705424056516982e+00 6.8687847735054239e+00 0 0 0
219 2 5.9877487718543474e+00 1.0584919746201587e+01 7.0678718905310838e+00 0 0 0
90 2 1.3893032689360492e+01 8.1133434864328913e-01 5.1081415477720160e+00 0 0 0
133 1 1.5733463631988517e+01 3.2587086088060935e+00 6.7954475562315357e+00 0 0 0
18 2 5.5245718683009759e+00 5.4192529514073717e+00 1.1075008429109929e+00 0 0 0
97 1 1.3908701616980636e+01 4.7242764589502535e+00 9.5032609372428709e+00 0 0 0
84 2 2.9035792164379353e+00 7.0982996164602934e+00 5.2339404963879632e-01 0 0 0
102 2 1.4135485687459777e+01 4.0567511744019917e+00 4.0870058898965234e-01 0 0 0
209 2 3.4581647793015953e+00 1.1059910162065313e+01 7.2625262735518614e+00 0 0 0
304 1 1.2893974956058859e+01 1.0923960125046714e+01 3.6589738305253987e+00 0 0 0
751 1 3.5276970751367100e+00 9.0205563626438270e+00 9.6393820645816835e+00 0 0 0
25 1 4.6259421526373172e+00 6.4146275446655139e+00 7.2264672839312141e+00 0 0 0
26 2 5.2714621103227230e+00 7.0950515315560940e+00 7.3699105581871498e+00 0 0 0
27 2 3.7116651836597883e+00 6.7415478819038501e+00 7.3775666033032987e+00 0 0 0
28 1 5.9442784970356746e+00 6.4046405219659706e+00 2.5860980982698840e+00 0 0 0
29 2 5.8142009945852102e+00 5.8909642650746301e+00 3.4324972285849462e+00 0 0 0
30 2 5.2643010304585252e+00 7.1080173957653896e+00 2.5290281289475876e+00 0 0 0
31 1 1.4847890138591189e+00 1.4270789284308192e+00 2.7282492839377102e+00 0 0 0
14 2 4.7724370300258059e+00 5.3882547377124714e+00 8.6190996178419184e+00 0 0 0
33 2 1.2281591530435931e+00 1.7206498351069812e+00 3.5908975956525881e+00 0 0 0
34 1 4.3122961728981535e-01 1.1307664985305772e+00 7.3355993920642604e+00 0 0 0
293 2 1.2383044127270701e+01 1.0722412468850697e+01 7.4223016049674708e+00 0 0 0
36 2 7.3741453041535943e-01 1.7378256994514762e+00 8.1117046783228535e+00 0 0 0
37 1 6.3127633424089487e+00 2.7292963872793821e+00 2.3546725675347897e+00 0 0 0
38 2 5.4350609103300211e+00 3.0663971867208439e+00 2.6502523070504824e+00 0 0 0
39 2 6.8015186084315875e+00 3.4869514221021141e+00 2.6433795030020217e+00 0 0 0
40 1 4.1351766341391345e+00 2.8586874081504736e+00 7.3422588233392760e+00 0 0 0
41 2 5.0312106757507058e+00 3.2737263862509414e+00 7.2133488253984064e+00 0 0 0
42 2 3.5316849017771204e+00 3.5799519876963570e+00 7.0767204590057755e+00 0 0 0
43 1 -3.2827674758556458e-01 5.1425886956930063e+00 7.3301533877220271e+00 0 0 0
44 2 -1.0841722570439707e+00 4.4715862457645867e+00 7.1413306097793798e+00 0 0 0
45 2 -6.4197443686605982e-01 5.5582126846644924e+00 8.2047864455570796e+00 0 0 0
46 1 1.9825821490843878e+00 5.1027995834096824e+00 2.3965034148502027e+00 0 0 0
47 2 1.1225521194491437e+00 4.7199444288342640e+00 2.6164308798326252e+00 0 0 0
48 2 2.2739529429653231e+00 5.5221778383362521e+00 3.2834838396112245e+00 0 0 0
49 1 6.8378503026524893e+00 3.3502759446164081e+00 6.1892537065677615e+00 0 0 0
50 2 6.4745841790953396e+00 4.1696723045338944e+00 5.8121049320414775e+00 0 0 0
51 2 6.8618783829175314e+00 2.5823868605325671e+00 5.5636768649464186e+00 0 0 0
52 1 4.0023677165922864e+00 3.5177889497852446e+00 3.3803903563652513e+00 0 0 0
53 2 3.2574208436229464e+00 3.8789533097356101e+00 2.9241368820066476e+00 0 0 0
54 2 3.7030851478916054e+00 2.8622096611464150e+00 4.0681517351141840e+00 0 0 0
55 1 -2.0565978321989731e-01 4.4878460992807501e+00 3.7297090855683175e+00 0 0 0
56 2 -2.9476947676614251e-01 5.2945934412262021e+00 4.2384566003293642e+00 0 0 0
57 2 2.6839668698701580e-01 3.7743514856398943e+00 4.2377121993803577e+00 0 0 0
58 1 2.0927603398839967e+00 4.3505468662644358e+00 6.4818480799645091e+00 0 0 0
59 2 2.2439219673377773e+00 5.1214942252206628e+00 5.9213091902365234e+00 0 0 0
60 2 1.2409584907269422e+00 4.5475503188611039e+00 6.9594059581454495e+00 0 0 0
61 1 8.2811493840020454e+00 7.1009392222683694e+00 1.4712867714081648e+00 0 0 0
62 2 7.4756098466267122e+00 6.8051306840071666e+00 1.9649664215768714e+00 0 0 0
80 2 6.5271298453229569e+00 1.6805743096260737e+00 9.6506540678501018e-01 0 0 0
64 1 2.1828212857922034e+00 7.1557461763073915e+00 8.2352999751978331e+00 0 0 0
65 2 1.3391061872935879e+00 7.4255362277177062e+00 7.9106590891591244e+00 0 0 0
668 2 1.2713010789836304e+01 1.8492047058209162e+00 9.1267297219666972e+00 0 0 0
331 1 1.5985455741488085e+01 9.1094477436113248e+00 3.0564139854959799e-01 0 0 0
167 2 1.1470111711072468e+01 5.4783937810278021e+00 9.8043810668138320e-01 0 0 0
67 1 -1.9720533969218752e+00 5.6643627483595149e-01 8.2896403517633761e+00 0 0 0
72 2 4.1652118682751986e+00 1.5949254989372816e+00 1.1698638749916426e+00 0 0 0
73 1 5.3370819284235207e+00 5.3051044903595166e+00 4.7743176015920907e+00 0 0 0
74 2 4.8858088925738556e+00 5.9556282771272491e+00 5.3374572273432781e+00 0 0 0
75 2 4.6884525936271926e+00 4.6258501806878183e+00 4.4069695246905907e+00 0 0 0
76 1 8.6809430728420534e-01 2.5409099998402400e+00 4.9811353069056432e+00 0 0 0
77 2 5.8651170481264070e-01 1.7917073204418110e+00 5.5274541332059277e+00 0 0 0
78 2 1.3981471097852700e+00 3.0987694009089415e+00 5.5908470544143549e+00 0 0 0
302 2 1.4545217821554864e+01 1.0751619777957298e+01 6.8846142398095607e+00 0 0 0
780 2 1.2891620749954322e+01 9.6568116252076397e+00 6.7539679389323137e-01 0 0 0
150 2 1.1333446669423267e+01 7.6176432288929190e+00 8.9093983065745377e+00 0 0 0
85 1 1.5750917545267558e+01 1.1411299635807974e+00 5.0916082198805235e+00 0 0 0
87 2 1.5859515800831424e+01 1.5975672614778536e+00 4.2462127164737185e+00 0 0 0
88 1 1.2971431027536280e+01 1.1135984408305029e+00 5.1122278517237785e+00 0 0 0
89 2 1.2894426475544748e+01 1.8417923451596536e+00 4.4269758213949837e+00 0 0 0
584 2 3.3573587013052748e+00 6.1212508442770630e-01 9.3811579076236828e+00 0 0 0
91 1 8.3123585484095130e+00 6.5251606616631630e+00 5.0666515120348050e+00 0 0 0
92 2 8.1211207180953870e+00 5.8714735111914482e+00 4.2782768061405019e+00 0 0 0
93 2 9.2830712615049418e+00 6.5981773894361497e+00 5.0043915315272161e+00 0 0 0
94 1 1.1151396259714312e+01 6.2783226368955178e+00 4.5933939054683224e+00 0 0 0
95 2 1.1738069606520071e+01 7.0065843488095956e+00 4.8635554115988935e+00 0 0 0
96 2 1.1158352221875012e+01 5.5809091485515054e+00 5.2966400999180365e+00 0 0 0
100 1 1.4730024203357804e+01 4.8127727449028139e+00 4.7219678180200947e-01 0 0 0
221 2 4.6409229278677762e+00 1.0652630723855932e+01 3.0369704044201868e+00 0 0 0
99 2 1.3117178804786763e+01 4.1031674604672919e+00 9.3979900528218181e+00 0 0 0
836 2 1.2596005897434548e+01 9.3917407588560149e+00 9.1745462870680203e+00 0 0 0
671 2 8.1478780373239044e+00 5.5210395850665819e+00 9.0031572160616395e+00 0 0 0
330 2 8.9043354845700282e+00 1.0624674162763142e+01 4.6114742517201384e+00 0 0 0
311 2 1.0705546948928621e+01 1.0832677552715824e+01 5.9834876438801308e+00 0 0 0
237 2 1.4717148340227343e+01 8.1710963951360256e+00 7.6760422361143510e+00 0 0 0
109 1 1.3720079051594954e+01 6.3684452690450737e+00 7.0527506256399679e+00 0 0 0
110 2 1.3874228913187235e+01 5.7030763665604365e+00 7.7720653605409433e+00 0 0 0
111 2 1.2809384633767339e+01 6.6371312260676767e+00 7.2228590422327930e+00 0 0 0
112 1 1.5017562183919940e+01 6.6908158977666217e+00 2.8189746080531175e+00 0 0 0
113 2 1.4308023072380145e+01 7.3327957920247036e+00 2.5304891392202280e+00 0 0 0
114 2 1.5869954321218186e+01 6.8623816659506449e+00 2.4230101963339727e+00 0 0 0
115 1 1.0664292066128191e+01 1.1267578414229837e+00 2.6652513880212569e+00 0 0 0
116 2 1.0454520040294613e+01 1.5675596305859043e+00 1.8107611051258774e+00 0 0 0
149 2 1.1110285409462405e+01 6.1534307481054453e+00 8.6731697515853750e+00 0 0 0
118 1 9.2609904688447280e+00 8.7993970327801496e-01 7.2927095691515547e+00 0 0 0
119 2 9.7800276237741031e+00 1.4692657037256878e+00 7.9049042738913551e+00 0 0 0
163 1 1.6395388268580430e+01 1.1522436007825116e+00 2.9382120804993050e-01 0 0 0
121 1 1.6000926926505628e+01 2.4520893056640460e+00 2.6717306865423112e+00 0 0 0
122 2 1.6483828391751370e+01 3.3284347264539793e+00 2.7826848784219593e+00 0 0 0
123 2 1.6155800382823521e+01 2.0503824429628779e+00 1.7070702223011922e+00 0 0 0
124 1 1.3066530624772327e+01 2.5979257976382528e+00 7.3824855590540315e+00 0 0 0
125 2 1.3999459676552412e+01 2.8893039439618708e+00 7.4278141493575518e+00 0 0 0
126 2 1.2895998748239727e+01 2.1105248506470500e+00 6.5266154470786111e+00 0 0 0
127 1 8.4843158428305898e+00 4.9944962887259958e+00 7.4335588232899470e+00 0 0 0
128 2 7.9296342520877019e+00 4.1730377576687232e+00 7.3071033778392138e+00 0 0 0
129 2 8.3320894707459185e+00 5.5180616326755532e+00 6.6145400442385025e+00 0 0 0
130 1 1.0979143067328232e+01 4.5866402806374182e+00 2.4965264542812617e+00 0 0 0
131 2 1.1438568248774990e+01 3.7733529901838856e+00 2.7145397188802098e+00 0 0 0
132 2 1.1365671772419585e+01 5.1805252462797782e+00 3.1425705122258867e+00 0 0 0
134 2 1.5477899007311713e+01 3.7590571089134128e+00 5.9924965040740119e+00 0 0 0
136 1 1.3401941195430819e+01 3.1557179523068868e+00 3.3184262157775657e+00 0 0 0
137 2 1.3868886575567331e+01 3.7232162082288629e+00 3.9590786254242714e+00 0 0 0
138 2 1.4206729282836919e+01 2.7415222700974464e+00 2.8859296490155479e+00 0 0 0
139 1 8.3122798646635250e+00 4.4361757100029306e+00 3.3693769492519201e+00 0 0 0
140 2 9.2355119506478900e+00 4.7294711971978103e+00 3.1016496116437109e+00 0 0 0
141 2 8.4962358200144159e+00 3.5949466409235606e+00 3.9145374841435445e+00 0 0 0
142 1 1.0992007302399397e+01 4.2734334258770792e+00 6.6334000916391549e+00 0 0 0
143 2 1.1482936535190110e+01 3.7427575046821593e+00 7.2681344987399337e+00 0 0 0
144 2 1.0133259672293045e+01 4.5054849318967785e+00 7.0395495092004534e+00 0 0 0
147 2 1.7282510913690221e+01 8.1304365676918859e+00 1.1123611991980564e+00 0 0 0
148 1 1.1009392727194243e+01 7.0358378087507063e+00 8.2186969031295813e+00 0 0 0
586 1 -1.2763764303517298e+00 6.1866208265584879e+00 9.6336583231298025e+00 0 0 0
192 2 4.9663088368827069e-01 1.0162744949890584e+01 8.5735109872210469e+00 0 0 0
753 2 4.0496810394335885e+00 9.5200888682081022e+00 9.0092382536703397e+00 0 0 0
585 2 3.8415364202586044e+00 2.0571899855258753e+00 9.0158281348068403e+00 0 0 0
153 2 6.4571839149418206e+00 1.1640058412736953e+00 8.5276918928312977e+00 0 0 0
246 2 1.3810681628245156e+00 1.0486437975239820e+01 5.3177974030719000e+00 0 0 0
155 2 1.3369256761163712e+01 1.1416480946342251e+00 1.0575952149550343e+00 0 0 0
70 1 4.0861357998110606e+00 7.4553381326458357e-01 1.6696991779644221e+00 0 0 0
157 1 1.4681291731756717e+01 4.8047441193199258e+00 4.9096451760598416e+00 0 0 0
158 2 1.5126259505955474e+01 5.3148801135015287e+00 4.2203569248470441e+00 0 0 0
159 2 1.4106620178156675e+01 5.3479573603631279e+00 5.4853284909641253e+00 0 0 0
160 1 9.6765549370075803e+00 2.3379779450950533e+00 5.0554615207368299e+00 0 0 0
161 2 1.0183211129952825e+01 3.0303523914415433e+00 5.5907683158539525e+00 0 0 0
162 2 1.0284524843683583e+01 1.9618554789463751e+00 4.3332358026494946e+00 0 0 0
106 1 9.7331578573442741e+00 2.4239585053042907e+00 9.3835295630786622e+00 0 0 0
83 2 2.0846809232464780e+00 5.9083969089790820e+00 9.3902791072598446e-01 0 0 0
220 1 3.8126907520751594e+00 1.0871927896754420e+01 3.4919709748101089e+00 0 0 0
169 1 6.5750992068076313e+00 8.6595727612033517e+00 4.9841858073332350e+00 0 0 0
170 2 7.1364012084543322e+00 7.8511076039002239e+00 5.1209048401096986e+00 0 0 0
171 2 6.9805245919411991e+00 9.3909155783931872e+00 5.5127611665802823e+00 0 0 0
172 1 3.8943394450474234e+00 8.7024345674063710e+00 5.2318326234290442e+00 0 0 0
173 2 3.6001944432676085e+00 9.4467411016064222e+00 4.6255973671206254e+00 0 0 0
174 2 4.8888219867772476e+00 8.6999919291577932e+00 5.0624512233345724e+00 0 0 0
5 2 4.8218258822127513e+00 1.2404097692038647e+00 4.9353528676494101e+00 0 0 0
145 1 1.7479890795733454e+01 7.3610181654195479e+00 1.6917156222337084e+00 0 0 0
321 2 7.0755656711802875e+00 7.2384027262243471e+00 8.9505226098895978e+00 0 0 0
66 2 2.6514796136004675e+00 7.8673164095161283e+00 8.7359455340175636e+00 0 0 0
199 1 1.5109588071096209e+00 8.8847002081284447e+00 2.6238877254571813e+00 0 0 0
200 2 1.3989534685020419e+00 9.4545468019407810e+00 1.8714012398362516e+00 0 0 0
201 2 1.0462547583016535e+00 8.1024890547871955e+00 2.4997322204803569e+00 0 0 0
202 1 1.4663470778293464e-01 8.7004877902491522e+00 7.3972816451117653e+00 0 0 0
203 2 -7.3183294519907705e-01 8.4190195298034656e+00 7.6508175670109866e+00 0 0 0
204 2 1.4439630544673276e-01 9.1332116884027403e+00 6.5065338337074321e+00 0 0 0
205 1 6.3292499671780753e+00 1.0231492182698256e+01 2.7240728735350381e+00 0 0 0
206 2 6.4287525546839355e+00 9.4350671816812657e+00 3.3073468607823191e+00 0 0 0
207 2 6.5433302022029665e+00 9.8026789105431771e+00 1.8665794734940342e+00 0 0 0
208 1 4.1487807640702821e+00 1.0382597877353382e+01 7.4189880169115057e+00 0 0 0
156 2 1.2478548835531091e+01 7.0877973977521891e-01 2.2066815513052669e+00 0 0 0
151 1 6.7754754580704084e+00 4.1553773318467607e-01 8.0377806568178620e+00 0 0 0
601 1 1.7557260375774582e+01 4.7403161245098993e+00 2.5077300800684543e-01 0 0 1
236 2 -2.7128874012630257e+00 8.9298207898031237e+00 8.8381888193049196e+00 0 0 0
35 2 -3.6276957310869173e-01 7.1778749074677239e-01 7.7359224574113545e+00 0 0 0
68 2 -2.2261389670644087e+00 1.4403981995951742e+00 8.6933480909846512e+00 0 0 0
166 1 1.1836912909065722e+01 6.0918066377231437e+00 2.3468227538652847e-01 0 0 1
235 1 -2.4211608593036278e+00 8.3039572910111215e+00 8.2211484544050126e+00 0 0 0
146 2 1.7531612426976867e+01 6.5623432740797840e+00 1.2003857740792179e+00 0 0 0
238 1 3.8875265128857022e+00 8.1344576178934265e+00 1.5603593580283404e+00 0 0 0
239 2 3.2132466396079118e+00 8.3815833217885451e+00 2.2168257387535664e+00 0 0 0
240 2 3.8514428549156321e+00 8.8683352461996563e+00 9.8241484450574446e-01 0 0 0
244 1 6.4068214572283355e-01 1.0027686944327476e+01 4.8359945900787018e+00 0 0 0
245 2 9.0065912152487271e-01 9.6978526092080717e+00 3.9674087129967761e+00 0 0 0
399 2 8.1937485835998167e+00 1.7698487438150373e-01 8.7540902342012095e-01 0 0 0
86 2 1.6482174410180249e+01 4.7444186485467010e-01 5.0509934928401119e+00 0 0 0
254 2 1.5792080505479404e+01 9.5580816219435061e+00 5.1692517124832911e+00 0 0 0
253 1 1.5522227992877923e+01 8.7681755823290093e+00 4.6496668840549571e+00 0 0 0
255 2 1.5402913891465824e+01 9.1084512645903235e+00 3.7571791627407056e+00 0 0 0
256 1 1.2758641392237990e+01 8.5783350626766293e+00 5.2088775994911583e+00 0 0 0
257 2 1.3679804505307123e+01 8.3009051834417278e+00 5.1757655840997732e+00 0 0 0
258 2 1.2856538730180198e+01 9.3815108713482740e+00 4.6390552345695717e+00 0 0 0
486 2 1.1636996367575982e+01 1.5190931443302713e-01 9.0093227876985171e+00 0 0 0
2 2 7.2320211475047236e+00 4.0967555430117375e-01 4.8976692868017748e+00 0 0 0
32 2 2.3481445073047738e+00 1.0352060257263471e+00 2.6981084605527776e+00 0 0 0
101 2 1.4538384911484741e+01 5.2086486277161965e+00 1.3493522077086835e+00 0 0 0
283 1 1.0317776718991190e+01 8.6481398124422437e+00 2.6472920605734216e+00 0 0 0
284 2 9.8599759059415746e+00 8.9728144154124632e+00 3.4827404842064809e+00 0 0 0
285 2 9.7461091002201936e+00 7.9530446360944040e+00 2.3677425135555028e+00 0 0 0
286 1 9.0483160698311469e+00 8.5010290602066920e+00 7.0575486856255667e+00 0 0 0
287 2 9.5930674152601636e+00 7.8191725942839927e+00 7.4576676538874107e+00 0 0 0
288 2 8.1233564008774160e+00 8.2179432391557796e+00 7.2386273814359567e+00 0 0 0
289 1 1.5128495667484650e+01 1.0369946907216855e+01 2.4142518457907927e+00 0 0 0
120 2 9.4046216015330177e+00 1.3446180199748226e+00 6.4343925004446945e+00 0 0 0
291 2 1.5377796561474931e+01 9.9193532725868412e+00 1.5576939004137873e+00 0 0 0
292 1 1.2921841955350962e+01 9.9594282922857840e+00 7.6845005340613852e+00 0 0 0
275 2 9.3485332912682537e+00 9.6054543191588007e+00 8.4126481223673544e+00 0 0 0
294 2 1.2779512184684926e+01 9.3706399689677813e+00 6.9236943290798694e+00 0 0 0
21 2 1.2038492282887892e+00 2.5358784649799038e+00 1.0274871631423168e+00 0 0 0
606 2 1.0607720859017967e+01 3.9443997706822880e+00 9.7218083712242489e+00 0 0 0
274 1 9.4499541667130025e+00 1.0089307562909521e+01 9.3277655989032660e+00 0 0 0
63 2 8.5329158437396462e+00 6.2876754518323610e+00 1.0224357104278090e+00 0 0 0
319 1 6.7178000106571609e+00 7.9618201988172297e+00 8.3047871632085482e+00 0 0 0
320 2 6.6728077623766611e+00 8.7377078660310801e+00 8.9094848080929001e+00 0 0 0
117 2 1.0034560364715531e+01 4.0477039313058488e-01 2.5927586902459541e+00 0 0 0
322 1 1.2917035469889944e+01 8.2052161675598096e+00 1.8656961619867671e+00 0 0 0
323 2 1.2039092978847231e+01 8.2297637187193917e+00 2.3091182466727624e+00 0 0 0
324 2 1.2679400460489997e+01 7.5919846886652724e+00 1.1554308215512981e+00 0 0 0
328 1 9.6059791025481065e+00 1.0001091093612308e+01 4.9601488814369397e+00 0 0 0
329 2 9.2692454058990705e+00 9.5356346141032358e+00 5.7648904805693029e+00 0 0 0
165 2 1.6990662764384808e+01 5.1630313192113397e-01 7.9774405813996496e-01 0 0 0
135 2 1.6029426484712921e+01 2.3766734885142413e+00 6.4397372067397347e+00 0 0 0
306 2 1.3592783781278035e+01 1.0770026031340404e+01 3.0210104670211755e+00 0 0 0
670 1 7.7379318738683658e+00 6.0813245787191876e+00 9.6932378539082293e+00 0 0 0
521 2 2.1739854033373334e+00 5.7322755445831470e+00 9.2922197963660622e+00 0 0 0
154 1 1.3220426338754775e+01 4.2012133799116685e-01 1.6774993508678313e+00 0 0 0
290 2 1.5813292990842029e+01 1.0962575096466823e+01 2.7911417850235201e+00 0 0 0
301 1 1.5288415413957498e+01 1.1047783014137327e+01 6.3436090717802873e+00 0 0 0
612 2 1.2097510540969942e+01 2.6338767290756078e+00 2.8974209520188665e-01 0 0 0
247 1 7.1266351682895275e+00 9.1659012854874504e+00 2.7280264692470063e-01 0 0 0
108 2 8.8424248660291127e+00 2.8018067797014492e+00 9.2717149979431781e+00 0 0 0
190 1 6.2027307820611721e-01 1.0426037475221602e+01 9.5272591871667363e+00 0 0 0
587 2 -2.0111440894476269e+00 6.8206232704428364e+00 9.3218750052077350e+00 0 0 0
248 2 7.7741311407240383e+00 8.5492071392611706e+00 7.0083044694919194e-01 0 0 0
217 1 6.8498898076895482e+00 1.0728703099674840e+01 6.6501984760341832e+00 0 0 0
187 1 1.2052257500663413e+00 1.0576796069866312e+01 4.3912519748625378e-01 0 0 0
71 2 3.4192043083267611e+00 1.1443553314765614e-01 1.1642798543133992e+00 0 1 0
271 1 1.0051190442307538e+01 1.0126086693661652e+01 4.0872505689070221e-01 0 0 0
23 2 1.1852050638574716e+00 3.3931250898951673e+00 9.6752299706261340e+00 0 0 0
518 2 7.5856875110821518e+00 4.5257264577053116e+00 5.2869376083122699e-01 0 0 0
608 2 6.2630877155481972e+00 3.6531310505969867e+00 9.4532746347142353e+00 0 0 0
22 1 5.6301929401163919e-01 2.6411693726050633e+00 9.4714863992587777e+00 0 0 0
602 2 1.6652202175760717e+01 4.4579292012034228e+00 4.5532864009443802e-01 0 0 0
13 1 4.9547169442624730e+00 4.7932889810036157e+00 9.3455289733769114e+00 0 0 0
69 2 1.5145482342785314e+01 2.7104612168482112e-01 7.9778730441683621e+00 0 0 0
82 1 2.1899135486382848e+00 6.5637577222108883e+00 2.5367890020056882e-01 0 0 1
189 2 2.1384320784158515e+00 1.0703449001469389e+01 2.9475931776049230e-01 0 0 0
24 2 -3.8580836472808100e-01 2.9235953339131910e+00 9.4003178726670669e+00 0 0 0
401 2 1.9791889009366179e+00 1.4657648613135224e-01 7.7068132345973206e+00 0 0 0
224 2 -3.3660082731265217e-01 1.1240983859345377e+01 4.0957283171602299e+00 0 0 0
607 1 6.9933046114682362e+00 3.0179032268879067e+00 9.6186213252346509e+00 0 0 0
604 1 1.1140963803401856e+01 4.7071496391883665e+00 9.7058635238200104e+00 0 0 0
16 1 5.6058555015133322e+00 4.9994699379271728e+00 2.4192321553312238e-01 0 0 0
524 2 -2.7618634962216051e+00 3.5061988256654550e+00 9.7135870949264369e+00 0 0 0
583 1 3.7515677075322729e+00 1.4184060592659335e+00 9.7383983820003923e+00 0 0 0
333 2 9.0274001425777826e+00 8.3587920247365730e+00 1.8968534700983064e+01 0 0 0
816 2 7.3198246225894534e+00 1.1179448041334632e+01 1.5441666075780818e+01 0 0 0
779 2 6.1509722830472473e+00 9.6356914724854814e+00 1.8244432892005882e+01 0 0 0
696 2 -2.0484963392590476e+00 1.1190727156823540e+01 1.9090120543274253e+01 0 0 0
667 1 1.2528736033222991e+01 1.2052466884979407e+00 9.8253462805225595e+00 0 0 0
610 1 6.4628587936636794e+00 2.5266954648271791e+00 1.9200300370420912e+01 0 0 0
778 1 6.0777721411646626e+00 1.0255436614320487e+01 1.9001784569442741e+01 0 0 0
711 2 1.8138161809436824e+00 1.0384745210732705e+01 1.2056207130637418e+01 0 0 0
828 2 8.6506864903483400e+00 7.2640000153134245e+00 1.0463116998956108e+01 0 0 0
777 2 6.5948105757072746e+00 9.8886955298328303e+00 1.0897941933954135e+01 0 0 0
837 2 1.2157181198194655e+01 9.1987082701840581e+00 1.0714206542243968e+01 0 0 0
98 2 1.3724115418029285e+01 5.3425094130777149e+00 1.0246394698804126e+01 0 0 0
537 2 -8.6734654255716537e-01 9.3199174767013115e-01 1.1597150604758168e+01 0 0 0
528 2 -3.5648666453717683e+00 3.1492313951950912e+00 1.9192032978476568e+01 0 0 -1
798 2 9.5241522619274974e+00 9.8403011965519145e+00 1.6264407432186850e+01 0 0 0
835 1 1.2399206132177683e+01 8.7155301605652351e+00 9.8558600299245338e+00 0 0 0
732 2 -3.9396769021844502e-01 1.1299689797908661e+01 1.6392616723061288e+01 0 0 0
797 2 1.0653157120593610e+01 1.0681025797216106e+01 1.6876105486817487e+01 0 0 0
505 1 2.9439207398022909e+00 1.3988421663194246e+00 1.4079774056029660e+01 0 0 0
506 2 3.2413311179128259e+00 1.9007191972335438e+00 1.4853738945056284e+01 0 0 0
724 1 2.6671192383673237e-01 1.0728855539498493e+01 1.2959716750299966e+01 0 0 0
508 1 2.0438545839723510e-01 1.2962921585030704e+00 1.4565502165301000e+01 0 0 0
536 2 -2.2836150546012419e+00 5.4611397241522408e-01 1.1856591239460919e+01 0 0 0
510 2 1.1587710924831871e+00 1.1111089864623560e+00 1.4429838032100690e+01 0 0 0
511 1 -4.1784303512134890e+00 6.3990024654944566e+00 1.4507059919771295e+01 0 0 0
512 2 -3.2598893119080312e+00 6.6653512413179898e+00 1.4246253708178873e+01 0 0 0
513 2 -4.0315586997686035e+00 6.0801242640172628e+00 1.5389163171400240e+01 0 0 0
514 1 -1.4018704512980769e+00 6.6287643880624501e+00 1.4194334633830929e+01 0 0 0
515 2 -7.3739780417928591e-01 7.2700234830204691e+00 1.4463305208972020e+01 0 0 0
516 2 -1.2544194762054008e+00 5.8381691917615672e+00 1.4781424815356715e+01 0 0 0
810 2 8.6408652490153663e+00 1.0810245217229896e+01 1.2535120699924818e+01 0 0 0
519 2 1.8170751544851900e+00 5.1015938474861269e+00 1.8485279580254954e+01 0 0 0
525 2 -1.9924417215358465e+00 2.7081647190111893e+00 1.0877513702954975e+01 0 0 0
509 2 -2.1976160487579399e-01 3.9111982201741724e-01 1.4602724184886149e+01 0 0 0
794 2 1.2413956218484341e+01 1.0523977715865268e+01 1.2140752401509202e+01 0 0 0
658 1 9.7461522831880831e+00 4.1573858891074095e-01 1.1059892430343002e+01 0 0 0
188 2 -5.5333665242204466e+00 9.8219781845350500e+00 1.8979589762539746e+01 0 0 0
523 1 -2.0308379206312521e+00 2.8682637042270831e+00 9.9013742924752925e+00 0 0 0
527 2 -2.5719675195773637e+00 2.4828710782310375e+00 1.8341433630396516e+01 0 0 0
529 1 1.5375424837504008e+00 6.2889743085776928e+00 1.7148799845996827e+01 0 0 0
530 2 1.5881244098419280e+00 5.9607905363474316e+00 1.6262506750476589e+01 0 0 0
531 2 7.1399599569731986e-01 6.7246300986642993e+00 1.7351883976836000e+01 0 0 0
532 1 2.2852347758245068e+00 6.3661365959237877e+00 1.2171599740475260e+01 0 0 0
533 2 3.2206206121922545e+00 6.6903346303436901e+00 1.2010956428801569e+01 0 0 0
534 2 2.2243309873640422e+00 6.1246459841724787e+00 1.3124254927106072e+01 0 0 0
535 1 -1.7037688335588848e+00 1.2881024918595050e+00 1.1958518212475466e+01 0 0 0
603 2 1.0894154665887879e+01 5.2579559386318513e+00 1.8550096907569021e+01 0 0 0
574 1 9.1897216253426484e-01 4.4406533904117834e-01 1.1236738191282544e+01 0 0 0
538 1 -2.8994163448496351e+00 1.2399652975991189e+00 1.7246785538539882e+01 0 0 0
672 2 7.6513130711577251e+00 5.5502080930801885e+00 1.0477000252462066e+01 0 0 0
540 2 -2.8850464970765901e+00 1.7415100733692859e+00 1.6414508483698995e+01 0 0 0
541 1 2.9747022537403929e+00 2.9947654135497319e+00 1.1996175664928556e+01 0 0 0
542 2 2.9439832798558445e+00 2.3695079927855169e+00 1.2764968153118382e+01 0 0 0
543 2 3.1969503378824387e+00 2.4365398444986086e+00 1.1225705915316761e+01 0 0 0
544 1 7.7440919092716687e-01 2.6169493006028404e+00 1.6751492529773181e+01 0 0 0
545 2 4.1510695974311318e-01 2.2256028182821668e+00 1.7608291307816891e+01 0 0 0
546 2 4.6060876179564225e-01 2.0329176487455554e+00 1.6018198990798162e+01 0 0 0
547 1 -4.0710654007296689e+00 5.2517568013618217e+00 1.7119836547303812e+01 0 0 0
548 2 -3.1005720623176942e+00 5.1345946858555793e+00 1.6906401916120792e+01 0 0 0
549 2 -4.0952712140702090e+00 5.7191656663147672e+00 1.8006252283635483e+01 0 0 0
550 1 -1.4385595661990687e+00 5.1624632628242493e+00 1.1980155613438050e+01 0 0 0
551 2 -1.3379351051279382e+00 5.7600118867589822e+00 1.2765415952306361e+01 0 0 0
552 2 -7.0073820647382501e-01 4.4204329716949280e+00 1.2148157021098310e+01 0 0 0
553 1 3.0942388658904365e+00 3.3844222258004635e+00 1.5847495093581967e+01 0 0 0
554 2 2.3777312038195451e+00 3.0804684732087941e+00 1.6449913658615408e+01 0 0 0
555 2 3.7067640173986094e+00 3.8541068728392136e+00 1.6438715749132520e+01 0 0 0
556 1 2.5999083948048796e-01 3.2476429775757443e+00 1.2673132385190428e+01 0 0 0
557 2 1.1703085480511097e+00 3.0328596915014878e+00 1.2395655919669572e+01 0 0 0
558 2 -6.8157620911850181e-02 2.4917761485772822e+00 1.3193567454918645e+01 0 0 0
559 1 -3.8175809796089508e+00 4.2571947001220201e+00 1.2719352656099414e+01 0 0 0
560 2 -4.0566834905652085e+00 5.0392510466646501e+00 1.3332768597085689e+01 0 0 0
561 2 -2.9798978114185246e+00 4.5658332168863698e+00 1.2329485183443500e+01 0 0 0
562 1 -1.3762178816033757e+00 4.3988361480856204e+00 1.5600390611596005e+01 0 0 0
563 2 -1.8938321882671363e+00 3.6801874184464447e+00 1.5141315374445080e+01 0 0 0
564 2 -9.0362658873940660e-01 3.8141605083798469e+00 1.6222051651118541e+01 0 0 0
565 1 4.8105098861600197e+00 7.0412457519059419e+00 1.1069583597477111e+01 0 0 0
332 2 9.5264014463174664e+00 9.7242995758934825e+00 1.8658057890452760e+01 0 0 0
273 2 4.4364803574872296e+00 1.0184472512147384e+01 1.9136575206113740e+01 0 0 0
568 1 -8.1574372545758411e-01 7.3351360412762219e+00 1.7897271590995558e+01 0 0 0
569 2 -1.0536639222617250e+00 6.5298745070113577e+00 1.8422738206781140e+01 0 0 0
834 2 5.7457391833797402e+00 1.0579169837623837e+01 1.4264274830981471e+01 0 0 0
620 2 6.5677354994448196e+00 9.3315518435206490e-01 1.1913751235637099e+01 0 0 0
669 2 1.2267185940462806e+01 1.6588404468594125e+00 1.0608437859945630e+01 0 0 0
726 2 -3.8823200824139059e-01 1.1060246858470864e+01 1.2304094856899248e+01 0 0 0
826 1 9.0325583727377960e+00 7.9183131602264742e+00 1.1139091779380376e+01 0 0 0
576 2 1.1392121230876446e+00 1.1520841097383601e+00 1.0591345547631182e+01 0 0 0
577 1 1.6704687897487238e+00 5.2034205063817396e+00 1.4675153805423870e+01 0 0 0
578 2 7.2998135899683803e-01 4.7408698011252435e+00 1.4632869372417609e+01 0 0 0
579 2 2.2198211557330509e+00 4.4531332786242865e+00 1.5013870775341099e+01 0 0 0
580 1 -2.8278513003768566e+00 2.3322156768089859e+00 1.4400137462558082e+01 0 0 0
581 2 -2.3146876918926429e+00 1.7681568361302953e+00 1.3777587456989053e+01 0 0 0
582 2 -3.2572340598858243e+00 2.8800171206565190e+00 1.3718388214331021e+01 0 0 0
567 2 5.2791691830241607e+00 6.3459177004097977e+00 1.0568664733518299e+01 0 0 0
593 2 9.3606535295674149e+00 8.5813276238077663e-02 1.4510710153888828e+01 0 0 0
589 1 1.2596852205543456e+01 9.4946899999891399e-01 1.4645901514399879e+01 0 0 0
749 2 -1.6472410532024666e+00 1.0622611717181725e+01 1.4504456426991883e+01 0 0 0
591 2 1.2723995058078792e+01 1.8624828529412307e+00 1.5028773630631742e+01 0 0 0
592 1 9.7853200094959405e+00 8.4275910859065706e-01 1.4867034387596309e+01 0 0 0
566 2 4.4982395370168433e+00 7.7203293724066002e+00 1.0412833671379705e+01 0 0 0
594 2 9.5724249443009164e+00 1.5707022882591268e+00 1.4185435008951563e+01 0 0 0
595 1 4.9159199707961347e+00 6.2653529469447635e+00 1.4488152900211540e+01 0 0 0
596 2 4.5518856407829711e+00 5.9105741416885955e+00 1.5316259679720625e+01 0 0 0
597 2 4.8000877799252537e+00 5.5133584643042095e+00 1.3855889401115403e+01 0 0 0
598 1 7.7846689931225841e+00 6.5559352926957306e+00 1.4659700098325485e+01 0 0 0
599 2 6.7792042310777454e+00 6.6335725754369266e+00 1.4538497115642025e+01 0 0 0
600 2 8.0043591231111435e+00 6.1760585579183340e+00 1.3792430494785229e+01 0 0 0
809 2 1.0217588090237715e+01 1.0321909958965714e+01 1.2434649202495272e+01 0 0 0
655 1 3.3406427103643805e+00 2.8157077876877135e-01 1.7696764523932458e+01 0 0 0
572 2 -5.6903697676555884e+00 1.1892684235973798e+00 1.8306458820267231e+01 0 0 0
605 2 1.1162433785009089e+01 5.1897417244329764e+00 1.0582707100188399e+01 0 0 0
526 1 -2.6021205238234910e+00 2.9443130736933902e+00 1.9220908109419902e+01 0 0 0