LAMMPS data file via write_data, version 3 Mar 2020, timestep = 0

1008 atoms
2 atom types

2.2194963457410566e-01 1.8177605365418387e+01 xlo xhi
4.0473118157690280e-02 2.2529915881833432e+01 ylo yhi
2.3839359910516045e-01 1.9267322400890233e+01 zlo zhi
6.7177869574172919e-02 -6.6145275219265161e+00 -1.0498456707972221e-02 xy xz yz

Masses

1 16
2 2

Atoms # atomic

1 1 6.7503890327089273e+00 9.5781680026388960e-01 4.6342017613096171e+00 0 0 0
671 2 8.5524806702220300e+00 5.7017028903802567e+00 8.9815853357816327e+00 0 0 0
3 2 6.7068379279075820e+00 1.3419762173898091e+00 3.7440221723969098e+00 0 0 0
4 1 4.1023204808953393e+00 1.2419650650910048e+00 5.0124467287056724e+00 0 0 0
5 2 5.0329341622943735e+00 1.1277719446598389e+00 4.8151308417705012e+00 0 0 0
6 2 4.1067338364380808e+00 1.5194592878373154e+00 5.9079711519893356e+00 0 0 0
7 1 -3.1834288993341531e-01 6.4493975001980219e+00 5.2536911889002056e+00 0 0 0
8 2 -2.9331948894001703e-01 5.9779335039572139e+00 6.0985978292024088e+00 0 0 0
9 2 -1.0446347614930274e+00 7.1539878336638312e+00 5.3692215784826374e+00 0 0 0
10 1 2.4439269960620802e+00 6.4077108892278165e+00 4.6415870688411047e+00 0 0 0
11 2 1.5709404163068079e+00 6.7263518521997669e+00 4.9677795365153576e+00 0 0 0
12 2 2.9223893212991032e+00 7.2649974372380557e+00 4.4727090902026170e+00 0 0 0
528 2 3.0179876516941282e+00 2.6816405420551930e+00 3.5324867276116456e-01 0 0 0
14 2 5.1256301373365041e+00 5.3416085349234308e+00 8.8105593671795894e+00 0 0 0
302 2 1.4857249970533895e+01 1.0540811556583330e+01 6.9967279728335443e+00 0 0 0
133 1 1.5880555801126176e+01 3.4701589977112515e+00 6.7347893156118079e+00 0 0 0
18 2 5.7047126350029025e+00 5.0667753376471731e+00 1.1550535250228295e+00 0 0 0
67 1 -1.7834881432231695e+00 6.7293917406780246e-01 8.0348138826651549e+00 0 0 0
17 2 5.0014895078450579e+00 3.9741177744413343e+00 2.8274706538249350e-01 0 0 0
21 2 1.1875139242019523e+00 2.2868212871201168e+00 1.1711939745847570e+00 0 0 0
166 1 1.1887960727829483e+01 6.2223110961223975e+00 3.6161153520109107e-01 0 0 1
2 2 7.4705809703335992e+00 3.0663060308919643e-01 4.7532689460942184e+00 0 0 0
587 2 -1.1882699025560994e+00 7.2414840524899713e+00 9.2481411656859258e+00 0 0 0
25 1 4.7351519781758196e+00 6.4094674687401634e+00 7.2798867811490071e+00 0 0 0
26 2 5.3317081700077376e+00 7.1070537990300080e+00 7.6009889975981730e+00 0 0 0
27 2 3.7827916301076461e+00 6.7724384420752504e+00 7.2830662646335416e+00 0 0 0
28 1 6.0100622619048352e+00 6.1668981340838220e+00 2.4604513035848878e+00 0 0 0
29 2 5.8018746975620257e+00 6.0392022225676527e+00 3.4313607485252722e+00 0 0 0
30 2 5.3601004627304816e+00 6.8290064898070195e+00 2.1760937284327779e+00 0 0 0
31 1 1.4446286823423835e+00 1.3883228505889198e+00 2.6083381343059231e+00 0 0 0
32 2 2.3777496312986219e+00 1.1807427250810512e+00 2.5281073732820700e+00 0 0 0
33 2 1.3802612257938560e+00 1.9278964439958552e+00 3.4098798804083277e+00 0 0 0
34 1 8.1664172533951884e-01 8.5150781286261668e-01 7.3549582522844883e+00 0 0 0
220 1 3.8835555432094981e+00 1.0847789064126916e+01 3.2462892267813492e+00 0 0 0
36 2 9.0984983373606587e-01 1.5817611716623470e+00 8.0311904082569932e+00 0 0 0
37 1 6.5254448876123048e+00 2.6717861031252861e+00 2.3480056678009911e+00 0 0 0
38 2 5.7579569950131591e+00 3.0687113799433474e+00 2.7384486290529759e+00 0 0 0
39 2 7.2873461754341546e+00 3.2492287239034665e+00 2.4796307948262784e+00 0 0 0
40 1 4.1538813657143123e+00 2.5913761317543624e+00 7.4165130830106447e+00 0 0 0
41 2 5.1061585456516134e+00 2.8181637088558231e+00 7.2563366204783843e+00 0 0 0
42 2 3.6196812368505662e+00 3.4325094430879823e+00 7.1597888787272321e+00 0 0 0
43 1 9.4999898075716516e-02 5.1606838621357332e+00 7.6380207000656277e+00 0 0 0
44 2 -5.0530369003955777e-01 4.4170932093225916e+00 7.3655526708741350e+00 0 0 0
45 2 -2.0247057849836025e-01 5.6713650660866231e+00 8.4611312356121680e+00 0 0 0
46 1 1.9950895739518875e+00 4.6344985759769584e+00 2.5736846279564958e+00 0 0 0
47 2 9.5623504538832671e-01 4.5850652308351121e+00 2.6556675342316445e+00 0 0 0
48 2 2.2464584631509723e+00 5.2888098930915222e+00 3.2097276374733497e+00 0 0 0
49 1 6.8483769821881531e+00 3.2160681661065516e+00 6.3955900545836917e+00 0 0 0
50 2 6.1652950701319646e+00 3.6953846301777640e+00 5.9282717257673978e+00 0 0 0
51 2 7.2435005046620944e+00 2.6190700846294486e+00 5.7139828385569515e+00 0 0 0
52 1 4.3022200460632725e+00 3.4079937027497027e+00 3.4036748304183382e+00 0 0 0
53 2 3.4787659143310350e+00 3.4621418025808772e+00 2.9156550471490585e+00 0 0 0
54 2 4.1132975680761277e+00 2.6985461666148525e+00 4.0262790051683064e+00 0 0 0
55 1 -5.3055959347825699e-01 4.4139837019360133e+00 3.4479886188407729e+00 0 0 0
56 2 -5.7533338117371224e-01 5.2502803147283519e+00 3.9795215609610599e+00 0 0 0
57 2 -4.2653541438488507e-01 3.7843427663550635e+00 4.1553262742109407e+00 0 0 0
58 1 2.3064940184599338e+00 4.2702402533389670e+00 6.5508191058812351e+00 0 0 0
59 2 2.5065257821724676e+00 5.0874528487457624e+00 6.0456765243949082e+00 0 0 0
60 2 1.4752719195040149e+00 4.5607805792073091e+00 7.0195319034307815e+00 0 0 0
61 1 8.2589780031407578e+00 7.0857003412048334e+00 1.5409203994382155e+00 0 0 0
62 2 7.3780939017591294e+00 6.7992286244991442e+00 1.9320396607102892e+00 0 0 0
63 2 8.5977177081669005e+00 6.2801430139885879e+00 1.0600225321194712e+00 0 0 0
64 1 2.2625732891672055e+00 7.2788988407661552e+00 8.2190922745457193e+00 0 0 0
65 2 1.5144090949679967e+00 7.7706328361170760e+00 7.8458883976909082e+00 0 0 0
66 2 2.6424097878458790e+00 7.9549937715318224e+00 8.8525455913036843e+00 0 0 0
80 2 6.6115886227109151e+00 1.7514187093554758e+00 8.7490732282376382e-01 0 0 0
68 2 -2.1118534589099829e+00 1.2854141222612410e+00 8.7294512324749469e+00 0 0 0
90 2 1.4107596495868139e+01 8.3702225090897153e-01 5.1104757000638452e+00 0 0 0
72 2 4.0320320224771544e+00 1.2635320622905692e+00 1.3263327637954869e+00 0 0 0
73 1 5.4150296720429720e+00 4.9676923251056593e+00 5.0243182901987122e+00 0 0 0
74 2 5.0513618323792580e+00 5.6103290163132433e+00 5.7409780751962165e+00 0 0 0
75 2 4.7193248109918908e+00 4.7471790706313408e+00 4.4578281729211380e+00 0 0 0
76 1 9.1173620378147957e-01 2.6135281136863631e+00 5.0411729454369265e+00 0 0 0
77 2 9.3978852826916470e-01 1.9096591089502604e+00 5.7214215683223326e+00 0 0 0
78 2 1.4320983393637521e+00 3.3578433213863619e+00 5.4583332575443082e+00 0 0 0
167 2 1.1562485774034382e+01 5.7246458073055884e+00 1.1479952539021263e+00 0 0 0
219 2 5.6414974595133991e+00 1.0645836272694984e+01 6.6895378285795193e+00 0 0 0
35 2 -3.0092115182280832e-02 4.4097451676362659e-01 7.5884700067209456e+00 0 0 0
85 1 1.5837896988070680e+01 1.1221446635875254e+00 5.2317912772092807e+00 0 0 0
87 2 1.5739118102069993e+01 1.5762938568738587e+00 4.3304921628217850e+00 0 0 0
88 1 1.3165277040492631e+01 1.0395456936428684e+00 5.2615745392037425e+00 0 0 0
89 2 1.3000594297408103e+01 1.8760223253385986e+00 4.7798267572831952e+00 0 0 0
331 1 1.6170324700854579e+01 9.0734288536528318e+00 3.5685347112307897e-01 0 0 0
91 1 8.0961227690391002e+00 6.4650114775773293e+00 4.8341076474128650e+00 0 0 0
92 2 7.9282358729996263e+00 5.7233272111583773e+00 4.1967774415225367e+00 0 0 0
93 2 9.0545632238650615e+00 6.6848569104959088e+00 4.8062761419681967e+00 0 0 0
94 1 1.0823451838659107e+01 6.5548047477671973e+00 4.9182755840798968e+00 0 0 0
95 2 1.1516038556871546e+01 7.2859235657964287e+00 5.1500720602340877e+00 0 0 0
96 2 1.1026691009014485e+01 5.8721213215398151e+00 5.5625160165293845e+00 0 0 0
222 2 3.1300052280542738e+00 1.1090730814841722e+01 2.6712602629220981e+00 0 0 0
190 1 4.3554140710549660e-01 1.0552236969305852e+01 9.5412209644373096e+00 0 0 0
16 1 5.6028891062808706e+00 4.7644849935660831e+00 2.6920290080201081e-01 0 0 0
101 2 1.4722303583659993e+01 5.0857765148590284e+00 1.0709759860103167e+00 0 0 0
82 1 2.5618895148260501e+00 6.0346592912318977e+00 3.2459491217667852e-01 0 0 1
290 2 1.6025576195822815e+01 1.0781697715421116e+01 2.8306800618008618e+00 0 0 0
189 2 1.8775980476092953e+00 1.0492695794447384e+01 3.4855708896037330e-01 0 0 0
237 2 1.4994683118704634e+01 7.9303029034659467e+00 8.1006042538810856e+00 0 0 0
109 1 1.4053616233430212e+01 6.5583503606379008e+00 7.4684720120003414e+00 0 0 0
110 2 1.4337096424928465e+01 5.8322709901538552e+00 8.0430564051185804e+00 0 0 0
111 2 1.3132799104986784e+01 6.7869080848817909e+00 7.7553172113972710e+00 0 0 0
112 1 1.4781041877307338e+01 6.0143710075920325e+00 2.5763036117007068e+00 0 0 0
113 2 1.4188415810198517e+01 6.7463113010022475e+00 2.4421042024171369e+00 0 0 0
114 2 1.5734684863723430e+01 6.3068078959688370e+00 2.4908197512306844e+00 0 0 0
115 1 1.0440114810041930e+01 1.2556723514647783e+00 2.6411595997606860e+00 0 0 0
116 2 1.0364601529464078e+01 1.9163720029121485e+00 1.9128971030610080e+00 0 0 0
83 2 2.2358110265459148e+00 5.5171293378484281e+00 1.0971527769352281e+00 0 0 0
118 1 9.5869077580869515e+00 1.3092327409814146e+00 7.3106007298472129e+00 0 0 0
119 2 9.9891185711573929e+00 1.9646470739646198e+00 7.9825936567458085e+00 0 0 0
120 2 9.7773158619254659e+00 1.5962909398541050e+00 6.3888463862089164e+00 0 0 0
121 1 1.5135580296651334e+01 2.7677270902633566e+00 2.6570593079354095e+00 0 0 0
122 2 1.5743861535634304e+01 3.4919948105893517e+00 2.8193091593772022e+00 0 0 0
123 2 1.5374444952964035e+01 2.4262400329715459e+00 1.7998723533742371e+00 0 0 0
124 1 1.3209789988477844e+01 2.5335198662249772e+00 7.5157056629286174e+00 0 0 0
125 2 1.4142563874079016e+01 2.8511975015578326e+00 7.3255401001326890e+00 0 0 0
126 2 1.2962755070992454e+01 1.8509785846595519e+00 6.8687491198238693e+00 0 0 0
127 1 8.5451379255672215e+00 5.1153540282670873e+00 7.2876839749182931e+00 0 0 0
128 2 7.8966095282358779e+00 4.3935092553622699e+00 7.1746867982457259e+00 0 0 0
129 2 8.3168282720894879e+00 5.7660245218050603e+00 6.6187050004273678e+00 0 0 0
130 1 1.1064270456620529e+01 5.2163175296565552e+00 2.6822895116404921e+00 0 0 0
131 2 1.1568762186677770e+01 4.4113653900350247e+00 2.8046711763370067e+00 0 0 0
132 2 1.1073161730581809e+01 5.8078500999129794e+00 3.4697334913395546e+00 0 0 0
134 2 1.5409885450903197e+01 4.1456357192119277e+00 6.1294066777064273e+00 0 0 0
136 1 1.2739029743996056e+01 3.3682791534524568e+00 3.8052420934251163e+00 0 0 0
137 2 1.3210489970128544e+01 4.0720393279901845e+00 4.3970920226243022e+00 0 0 0
138 2 1.3443501540413468e+01 3.1070217529838384e+00 3.1922324752142361e+00 0 0 0
139 1 8.5413915075571030e+00 4.2329450300192475e+00 3.3027255721721129e+00 0 0 0
140 2 9.4254007500965411e+00 4.3832676117074723e+00 2.9341471585256498e+00 0 0 0
141 2 8.6603700344089987e+00 3.6299719817936373e+00 4.0292766602651682e+00 0 0 0
142 1 1.0995474081106845e+01 4.3259005406906006e+00 6.2576600862888103e+00 0 0 0
143 2 1.1677918340939454e+01 3.9813612305629280e+00 6.8888771235811967e+00 0 0 0
144 2 1.0220983395007790e+01 4.2715415472377583e+00 6.8019559576572721e+00 0 0 0
147 2 1.7237053952199545e+01 7.7487398106391945e+00 1.4165859867794077e+00 0 0 0
148 1 1.1466111539409749e+01 6.9395984906624184e+00 8.2247520262263389e+00 0 0 0
149 2 1.1293790671852021e+01 6.1051699196148874e+00 8.7590665307273010e+00 0 0 0
150 2 1.1769638234738778e+01 7.5900482932989259e+00 8.8343284956522368e+00 0 0 0
156 2 1.2194732148438522e+01 5.2718395597411616e-01 2.1657095767900989e+00 0 0 0
70 1 3.8193140680487718e+00 4.3383255045829233e-01 1.7742626850746939e+00 0 0 0
153 2 6.6572732738347726e+00 1.2130833220439177e+00 8.9302208325845811e+00 0 0 0
13 1 4.9616221613032865e+00 4.9585985984368337e+00 9.7087418526388110e+00 0 0 0
155 2 1.3052015846611200e+01 1.4423024064898919e+00 1.3050348590304488e+00 0 0 0
152 2 7.4720106506713613e+00 8.0470428675647765e-01 7.6660626646354988e+00 0 0 0
157 1 1.4423350621140727e+01 5.1373969902810828e+00 5.0490367901337114e+00 0 0 0
158 2 1.4794874354350448e+01 5.6564561268969173e+00 4.3266993245216376e+00 0 0 0
159 2 1.4077321306271338e+01 5.7566404609332205e+00 5.7076662908355571e+00 0 0 0
160 1 9.7594422728228842e+00 2.3591562263086452e+00 4.9379010115615651e+00 0 0 0
161 2 1.0434581384148455e+01 3.0513780046981109e+00 5.0585762737072217e+00 0 0 0
162 2 9.9662611951774380e+00 1.8757176856895075e+00 4.0839498206967972e+00 0 0 0
187 1 9.4626831178433857e-01 1.0188037613866760e+01 4.6428247431452374e-01 0 0 0
486 2 1.1389498092639409e+01 1.2409357477745599e-01 9.0945448794727639e+00 0 0 0
668 2 1.2919912390825287e+01 1.7923391247993876e+00 9.1876377559210578e+00 0 0 0
169 1 6.4952796005638831e+00 8.5922274156418261e+00 4.6599908951557687e+00 0 0 0
170 2 7.0355477356494305e+00 7.8005724000692638e+00 4.8351076936454804e+00 0 0 0
171 2 6.7287133471770808e+00 9.3247647923437409e+00 5.3648224658119670e+00 0 0 0
172 1 3.8386032543791968e+00 8.7569797852050613e+00 4.7534043427789978e+00 0 0 0
173 2 3.5355362148367746e+00 9.5432135237473794e+00 4.2743242508720858e+00 0 0 0
174 2 4.8151796763577872e+00 8.7224456720170362e+00 4.7002205806490611e+00 0 0 0
99 2 1.3440954346795479e+01 4.0581104400291039e+00 9.4978112826400682e+00 0 0 0
145 1 1.7229197613135270e+01 6.8694473050814651e+00 1.9302522876038961e+00 0 0 0
304 1 1.2884662283015356e+01 1.0961206702011060e+01 3.6781927139656370e+00 0 0 0
192 2 4.2560618166044728e-01 1.0095668842390827e+01 8.6457559254774150e+00 0 0 0
199 1 1.5495463205947324e+00 8.6754103441860053e+00 2.6818750646137341e+00 0 0 0
200 2 1.1712671513833222e+00 9.2594930030895775e+00 2.0019956847761007e+00 0 0 0
201 2 9.8911313239362897e-01 7.8959985817201055e+00 2.6569052563569078e+00 0 0 0
202 1 4.8177785966873277e-02 8.8798298679626964e+00 7.2743592730609938e+00 0 0 0
203 2 -8.7397796818261364e-01 8.8676832061851769e+00 7.6127042281737332e+00 0 0 0
204 2 -3.4067526928666991e-02 9.3971860732476831e+00 6.4621772137194951e+00 0 0 0
205 1 6.5498173355167708e+00 1.0110176818217338e+01 2.4438673624312361e+00 0 0 0
206 2 6.6747792792621023e+00 9.4677123053137020e+00 3.2126435225332588e+00 0 0 0
207 2 6.9515165095328681e+00 9.7131028566382156e+00 1.6690014695428377e+00 0 0 0
208 1 4.0598629117361753e+00 1.0210403381343513e+01 7.2828902037276322e+00 0 0 0
293 2 1.2339405059092082e+01 1.0916947549653090e+01 7.1555921878201625e+00 0 0 0
210 2 3.8433473552221908e+00 9.6924229583645545e+00 6.4749427618419917e+00 0 0 0
306 2 1.3651717397350694e+01 1.0780300134095405e+01 3.0037944839571673e+00 0 0 0
217 1 6.4497134706500407e+00 1.0773390699426077e+01 6.1243309210183758e+00 0 0 0
221 2 4.6977114072613091e+00 1.0776299482626152e+01 2.7128725253611994e+00 0 0 0
751 1 3.7145573598164852e+00 8.9550818707477511e+00 9.6183798115223915e+00 0 0 0
585 2 4.0309904406062387e+00 1.8760094607303985e+00 8.8756757156376072e+00 0 0 0
235 1 -2.2477876900684421e+00 8.4694264911683579e+00 8.5456028515752287e+00 0 0 0
236 2 -2.6102758166902551e+00 9.2360640113934522e+00 9.1416860103737818e+00 0 0 0
238 1 4.1098051581857700e+00 7.8418329154011079e+00 1.6008529750005205e+00 0 0 0
239 2 3.4711092803899852e+00 8.2077091649276586e+00 2.2217919562588246e+00 0 0 0
240 2 4.1939461976875325e+00 8.5283833849163031e+00 9.2989532246543605e-01 0 0 0
244 1 6.5744129158958264e-01 1.0280525112444566e+01 4.9297149102172408e+00 0 0 0
245 2 1.1320517938703329e+00 9.7440368519836760e+00 4.3036772464264779e+00 0 0 0
246 2 1.2947476582734119e+00 1.0788378721573492e+01 5.4984119899411450e+00 0 0 0
753 2 3.9222094501412115e+00 9.4461424162659764e+00 8.7511274107371726e+00 0 0 0
254 2 1.5686252774085805e+01 9.6055239693288375e+00 5.5038237244148727e+00 0 0 0
253 1 1.5708034752074045e+01 8.7682418091839462e+00 5.0008420664314812e+00 0 0 0
255 2 1.5823641752398792e+01 9.0948361728909717e+00 4.0864911920542148e+00 0 0 0
256 1 1.2899365054399656e+01 8.7158400781557948e+00 5.1382641089283547e+00 0 0 0
257 2 1.3717558336458975e+01 8.3534998442584616e+00 4.8495099710824787e+00 0 0 0
258 2 1.2837742368334924e+01 9.5077819336142646e+00 4.4707847523023965e+00 0 0 0
521 2 2.0219248955996818e+00 5.5356681742463572e+00 9.1481722905375982e+00 0 0 0
272 2 1.0030386922197540e+01 9.8148923169949178e+00 1.2390821385610293e+00 0 0 0
301 1 1.5637500307892832e+01 1.0927061199353087e+01 6.6136358443008509e+00 0 0 0
276 2 9.4726284881056309e+00 9.7792419313004206e+00 8.8892281319000652e+00 0 0 0
283 1 1.0305978105601804e+01 8.7910084423625765e+00 2.5234000286099705e+00 0 0 0
284 2 1.0321627264431305e+01 9.1643464325824002e+00 3.4612776721484422e+00 0 0 0
285 2 9.6611372091350596e+00 8.0612495890871028e+00 2.4352414590953764e+00 0 0 0
286 1 9.2805385817959714e+00 8.7782410334666316e+00 7.3893847427352588e+00 0 0 0
287 2 9.7766625178429170e+00 7.9266483810588690e+00 7.6086190065218195e+00 0 0 0
288 2 8.3846732197246752e+00 8.4612671843827805e+00 7.6193948757622056e+00 0 0 0
289 1 1.5188085029993568e+01 1.0301373905633939e+01 2.5197630372443718e+00 0 0 0
209 2 3.5495447557992619e+00 1.1050669378637719e+01 7.1251556798440605e+00 0 0 0
291 2 1.5392455562471767e+01 9.8854185925802636e+00 1.6476344916267323e+00 0 0 0
292 1 1.3004219769618036e+01 1.0221069271316367e+01 7.4105879815533999e+00 0 0 0
151 1 6.8277487727935977e+00 4.6913803956288352e-01 8.3307722243259779e+00 0 0 0
294 2 1.2891872958828134e+01 9.6508342659103690e+00 6.5977467173960722e+00 0 0 0
399 2 8.1866080191210386e+00 2.3207931427900061e-01 1.1738597266171908e+00 0 0 0
584 2 3.2662353492457110e+00 6.4718310597332285e-01 9.4014865468781448e+00 0 0 0
104 2 9.5745793252681057e+00 3.5206754407779011e+00 3.2926515129613931e-01 0 0 1
97 1 1.4286356513254864e+01 4.4877028267433356e+00 9.4141559188746058e+00 0 0 0
319 1 6.6386709916491284e+00 7.9986814855761166e+00 8.3543143898818784e+00 0 0 0
320 2 6.4935504997632831e+00 8.7166048214739273e+00 8.9843532254899987e+00 0 0 0
321 2 6.9802381720121405e+00 7.3437925871822687e+00 8.9640262698623605e+00 0 0 0
322 1 1.2975729625825407e+01 8.1783621558548756e+00 1.9098622648318728e+00 0 0 0
323 2 1.2080604023546487e+01 8.3948987386758311e+00 2.2942590717047122e+00 0 0 0
324 2 1.2599970623826600e+01 7.4939310892918671e+00 1.2709202744155303e+00 0 0 0
328 1 9.8341710484887273e+00 9.8353577417592373e+00 4.9557746111484242e+00 0 0 0
329 2 9.5496976970869891e+00 9.3268488160978080e+00 5.7453101798448127e+00 0 0 0
330 2 9.1651971562327610e+00 1.0470807865167954e+01 4.6382233490819242e+00 0 0 0
135 2 1.6069226433254606e+01 2.6524358835628705e+00 6.1832042662178530e+00 0 0 0
86 2 1.6324919967260552e+01 2.6301213281917779e-01 5.0588671856499099e+00 0 0 0
146 2 1.7549998725299620e+01 6.1381754974764933e+00 1.4186224374605072e+00 0 0 0
117 2 9.6734400724783782e+00 7.0851082132234700e-01 2.4870773323265900e+00 0 0 0
836 2 1.2772605905313052e+01 9.5551824745593077e+00 8.9764495940474269e+00 0 0 0
154 1 1.3038344385419682e+01 5.1812815229813358e-01 1.6929771865341758e+00 0 0 0
24 2 -3.2707944045052395e-01 2.8399589251844319e+00 9.5946950827657211e+00 0 0 0
778 1 1.2960360804171996e+01 1.0564762909025616e+01 3.3090426039611576e-01 0 0 1
835 1 1.2823678363268495e+01 8.8283777305887554e+00 9.6036156615838202e+00 0 0 0
780 2 1.3122640605916825e+01 9.7885856791070225e+00 9.3495045866600024e-01 0 0 0
586 1 -5.3906754857756667e-01 6.6529658505733682e+00 9.6707180830514954e+00 0 0 0
103 1 1.0274174947751478e+01 2.8322248742429807e+00 3.7340009926033613e-01 0 0 0
84 2 3.2093151493205974e+00 6.7350601950785078e+00 6.6819584741278537e-01 0 0 0
23 2 1.0876043073757136e+00 3.5612164196846599e+00 9.5590482785306019e+00 0 0 0
106 1 9.4176934754857928e+00 2.9523797878729074e+00 9.4913315253643447e+00 0 0 0
311 2 1.0810402035069732e+01 1.1110442113029242e+01 5.8053941709692038e+00 0 0 0
22 1 6.2471891364523158e-01 2.6639508873793925e+00 9.4589115829803738e+00 0 0 0
165 2 1.6693170636770905e+01 1.3010073628277088e+00 6.8255945277144825e-01 0 0 0
108 2 8.4128071004316602e+00 3.0434397159285060e+00 9.4430158304836613e+00 0 0 0
69 2 1.5441531721870247e+01 2.8425463700411419e-01 7.5249020827720630e+00 0 0 0
583 1 3.7177948489726229e+00 1.4679021364790557e+00 9.7039758880672462e+00 0 0 0
271 1 1.0166669850270351e+01 1.0319383409242505e+01 3.5368556039022431e-01 0 0 0
273 2 1.1096520312772720e+01 1.0471833219338217e+01 3.1693727051025899e-01 0 0 1
15 2 4.0124163337328120e+00 4.7356223376585076e+00 9.6946931552128355e+00 0 0 0
482 2 -1.3723871587679398e-01 2.8023172890374159e-01 2.4797564644488688e+00 0 0 0
248 2 7.8873710989956871e+00 8.3060007942050280e+00 2.6625348010432143e-01 0 0 0
188 2 -5.7231763628313974e+00 9.3599627396506477e+00 1.8976721256911681e+01 0 0 0
249 2 8.0697778409390075e-01 9.3879337577069961e+00 1.8244370485017882e+01 0 0 0
100 1 8.2299452244329654e+00 4.7966007639346824e+00 1.9202052709659192e+01 0 0 -1
658 1 9.4759228845580115e+00 5.5963824592935396e-01 1.0927962201924935e+01 0 0 0
574 1 8.4929358129127142e-01 2.8995238375301741e-01 1.1098437712852704e+01 0 0 0
526 1 -2.6821419737304977e+00 2.5849090646691550e+00 1.9193736909840382e+01 0 0 0
694 1 -2.8015061338520759e+00 9.9880461527175832e+00 1.9156962797842944e+01 0 0 0
107 2 9.4936957065032423e+00 2.2478481896481171e+00 1.0100959842431818e+01 0 0 0
828 2 8.7943563119858830e+00 8.1719226797224156e+00 1.1872936874380304e+01 0 0 0
164 2 8.7836373430837433e+00 9.2316332762623721e-01 1.8841686569398718e+01 0 0 0
510 2 1.0822208792451233e+00 7.1815974948480232e-01 1.4470074240428271e+01 0 0 0
332 2 9.7899770903542631e+00 9.5956834614167139e+00 1.8589902453277105e+01 0 0 0
518 2 9.9720657087562792e-01 4.4099798927404521e+00 1.9244552096944581e+01 0 0 -1
691 1 -2.1845590274832292e+00 1.0404001301144442e+01 1.0252387485906615e+01 0 0 0
102 2 7.7062438805127194e+00 3.9489886513680688e+00 1.9141888229762976e+01 0 0 -1
696 2 -2.2619793849430829e+00 1.0787525169201777e+01 1.9227271350112488e+01 0 0 0
749 2 -1.8849237504845733e+00 1.0333562725548585e+01 1.4870658366840017e+01 0 0 0
816 2 7.6221852412513194e+00 1.1165103924783503e+01 1.5546406692503044e+01 0 0 0
505 1 3.0209283394155779e+00 1.2105396532557766e+00 1.4266096934053104e+01 0 0 0
506 2 3.3058482322327905e+00 1.9339765012803598e+00 1.4845488345950811e+01 0 0 0
809 2 1.0366381062877306e+01 1.0570264852682085e+01 1.2619396744143794e+01 0 0 0
508 1 2.2205718928046814e-01 1.1501305774290116e+00 1.4650831636140150e+01 0 0 0
728 2 -3.5632822601183598e+00 1.0756703951772707e+01 1.3466337241802451e+01 0 0 0
740 2 -5.0979696196114563e+00 7.1907497220831544e+00 1.8567624293434449e+01 0 0 0
511 1 -3.9598037410373843e+00 6.1977311163534585e+00 1.4751319026852519e+01 0 0 0
512 2 -3.8681620893823876e+00 5.4533329118010281e+00 1.4118132839465948e+01 0 0 0
513 2 -3.8418322130534150e+00 5.6907655094315697e+00 1.5552754199385076e+01 0 0 0
514 1 -1.1373779090757052e+00 6.6677503283113060e+00 1.4475440491386411e+01 0 0 0
515 2 -1.0406270663929305e+00 5.8349360908253392e+00 1.4965148114900600e+01 0 0 0
516 2 -2.0491673270115007e+00 6.8130819557972861e+00 1.4355969388390600e+01 0 0 0
247 1 6.5306278850992516e-01 9.0477856119125377e+00 1.9148882450938721e+01 0 0 -1
519 2 1.5592138925194323e+00 5.4170811853936067e+00 1.8165643760713444e+01 0 0 0
19 1 -5.4367563995751551e+00 2.5259516183085466e+00 1.9223591811464239e+01 0 0 -1
522 2 2.2023894344330883e+00 5.5117301388812994e+00 1.0789360129713808e+01 0 0 0
620 2 6.4826735962251130e+00 3.2741971642426004e-01 1.1975092499882091e+01 0 0 0
524 2 -2.5359277242518861e+00 3.1928055002593436e+00 1.0156323541957180e+01 0 0 0
525 2 -2.2201814367727843e+00 1.9120981252497053e+00 1.1067750501147033e+01 0 0 0
721 1 3.4022323960598708e+00 1.0822694431645882e+01 1.6107208395312220e+01 0 0 0
527 2 -2.6595165221648291e+00 2.1309653554728145e+00 1.8361051728038035e+01 0 0 0
529 1 1.0616554983638702e+00 6.4753433193642094e+00 1.6965224588459563e+01 0 0 0
530 2 1.2922429070050656e+00 6.0508856223149294e+00 1.6058266989446533e+01 0 0 0
531 2 1.3959978283668573e-01 6.6689556097174130e+00 1.7065019172001698e+01 0 0 0
532 1 2.6712789878949099e+00 6.3911659517238384e+00 1.2259055130418206e+01 0 0 0
533 2 3.5839796989439492e+00 6.5561932997398209e+00 1.2061318202541608e+01 0 0 0
534 2 2.5530738087102014e+00 6.2791945475378395e+00 1.3195573533724037e+01 0 0 0
535 1 -1.8532873061628208e+00 1.1054527297078003e+00 1.2571118424414466e+01 0 0 0
168 2 4.5010909852220298e+00 6.6651465279311806e+00 1.9048919963637623e+01 0 0 0
537 2 -9.4460761154271689e-01 8.9998794595912757e-01 1.2410625782631449e+01 0 0 0
538 1 -2.9486519757987173e+00 1.3225441790553980e+00 1.6893188695119143e+01 0 0 0
275 2 9.5472700128473562e+00 9.3995982397339048e+00 1.0414503818980396e+01 0 0 0
540 2 -2.7828842851034126e+00 1.7451983734695153e+00 1.6006266220821104e+01 0 0 0
541 1 3.3196939748557233e+00 2.8084334354375207e+00 1.1951603124679254e+01 0 0 0
542 2 3.3095134138957558e+00 2.0577019974282380e+00 1.2579402804224138e+01 0 0 0
543 2 3.5577955651250823e+00 2.3669207706535222e+00 1.1093567427207471e+01 0 0 0
544 1 9.2328697863521025e-01 2.6425196404171549e+00 1.6737292235670488e+01 0 0 0
545 2 6.5590276101266731e-01 2.3555770413923551e+00 1.7618418837517197e+01 0 0 0
546 2 6.4472551253386889e-01 1.9677795143006056e+00 1.6108538487547008e+01 0 0 0
547 1 -3.4481192111937822e+00 4.6829184880540398e+00 1.7079044833770517e+01 0 0 0
548 2 -3.9737077392282387e+00 3.9280918897797537e+00 1.6845987087568624e+01 0 0 0
549 2 -3.8326661697607705e+00 4.9933721078682423e+00 1.7937844462880406e+01 0 0 0
550 1 -1.2489855187811618e+00 5.1101851855879401e+00 1.1807294959476302e+01 0 0 0
551 2 -6.2378183286872790e-01 4.3810784444326227e+00 1.2010522472782473e+01 0 0 0
552 2 -1.2588204342706479e+00 5.7556334326740073e+00 1.2562085248517775e+01 0 0 0
553 1 3.3177004622082569e+00 3.4991588988804230e+00 1.5929656943369773e+01 0 0 0
554 2 2.6200479219832369e+00 3.1574321469819697e+00 1.6544586543577346e+01 0 0 0
555 2 4.0673598753125564e+00 3.6484392662725615e+00 1.6489560303071642e+01 0 0 0
556 1 6.3539024424646939e-01 3.3077505372649925e+00 1.2743875481043139e+01 0 0 0
557 2 1.4507096912549899e+00 2.9405993650974427e+00 1.2340123784563728e+01 0 0 0
558 2 4.0707209484034657e-01 2.7024723708885725e+00 1.3493858174597101e+01 0 0 0
559 1 -3.6251253588928662e+00 4.2092459740034283e+00 1.2982822307419378e+01 0 0 0
560 2 -2.9003902644984270e+00 4.5072124851740085e+00 1.2432782012115664e+01 0 0 0
561 2 -3.2360570894540750e+00 3.5089395263983829e+00 1.3589294396541314e+01 0 0 0
562 1 -1.0083123070736155e+00 4.3445565428916888e+00 1.6120873171590176e+01 0 0 0
563 2 -3.8497687544518033e-01 3.7480600032645008e+00 1.6503013273448431e+01 0 0 0
564 2 -1.8027893196010467e+00 4.2495524147373374e+00 1.6615898552311755e+01 0 0 0
565 1 5.3338796028095157e+00 7.2411729129785209e+00 1.1209325291717684e+01 0 0 0
566 2 4.7939280243339972e+00 7.7796956100924097e+00 1.0632767248805823e+01 0 0 0
567 2 5.2227186185931469e+00 6.4136650032465123e+00 1.0672434728334062e+01 0 0 0
568 1 -1.3211810969020981e+00 7.1791487768090274e+00 1.8051076188812161e+01 0 0 0
569 2 -1.4880101068567440e+00 6.2802173855758285e+00 1.8478919251805102e+01 0 0 0
570 2 -8.1638994067966930e-01 7.6634465433176668e+00 1.8676143579967778e+01 0 0 0
98 2 1.4354408618368080e+01 5.1813211344011032e+00 1.0132884467116812e+01 0 0 0
572 2 -5.8540907646804961e+00 1.0622917641838558e+00 1.8178592937686062e+01 0 0 0
672 2 8.8769710731504290e+00 6.4549472124198743e+00 1.0328012361030204e+01 0 0 0
826 1 9.5662460184452183e+00 7.9682220216139408e+00 1.1283054743261138e+01 0 0 0
576 2 6.9696563255981347e-01 1.1690259092671704e+00 1.0707727043991312e+01 0 0 0
577 1 1.8098878067422959e+00 5.2563398816068689e+00 1.4647473293802092e+01 0 0 0
578 2 1.2742840311206916e+00 4.7386780199059952e+00 1.4064762416312707e+01 0 0 0
579 2 2.5362896981631797e+00 4.6265382312675492e+00 1.4931422802715010e+01 0 0 0
580 1 -2.3974329920212489e+00 2.5123353633580043e+00 1.4582615480927499e+01 0 0 0
581 2 -2.0688901302418898e+00 1.9615174075675998e+00 1.3859468954053922e+01 0 0 0
582 2 -1.5732331609913230e+00 3.0178876287833081e+00 1.4833160246614010e+01 0 0 0
81 2 -3.4785811627918672e-01 6.7818131897120471e-01 1.8657819291381976e+01 0 0 0
724 1 5.4790559889257828e-01 1.0757893326163334e+01 1.2601654732241073e+01 0 0 0
589 1 1.2132068280234872e+01 9.3457733980930424e-01 1.4643743409194315e+01 0 0 0
590 2 1.1183840746477891e+01 6.3299813229856994e-01 1.4807885398251518e+01 0 0 0
591 2 1.2231815229622848e+01 1.7177836017426396e+00 1.5212367967647296e+01 0 0 0
592 1 9.5062414112231206e+00 6.4663751409783776e-01 1.4798424128971634e+01 0 0 0
692 2 -2.7105449524028495e+00 1.1208803390061925e+01 1.0228483983711939e+01 0 0 0
594 2 9.2757260631687970e+00 1.3617738835743596e+00 1.4168318937936657e+01 0 0 0
595 1 5.3375363839836236e+00 6.3880821388028624e+00 1.4563640761326747e+01 0 0 0
596 2 5.4729470106904516e+00 5.8920367046763200e+00 1.5422556807008966e+01 0 0 0
597 2 5.0627846270077983e+00 5.7053681304149899e+00 1.3879947812406904e+01 0 0 0
598 1 8.0602844256511510e+00 6.3689350670784561e+00 1.4057750380662206e+01 0 0 0
599 2 7.1029207843914532e+00 6.5310812664723166e+00 1.4208517208871733e+01 0 0 0
600 2 8.0456110679358339e+00 5.8856690709343811e+00 1.3232687105820924e+01 0 0 0
775 1 6.7474653896561678e+00 1.0272277601898692e+01 1.0102970412962321e+01 0 0 0
603 2 1.0910365255596110e+01 5.1907478668447391e+00 1.8043862065044252e+01 0 0 0
776 2 7.6946586671615655e+00 1.0441940962500452e+01 9.9248213644451795e+00 0 0 0
605 2 1.1256451282156226e+01 5.2558198399454454e+00 1.0549421119329859e+01 0 0 0
588 2 -9.9547137219347626e-01 5.9887034899594420e+00 1.0278654040671755e+01 0 0 0
539 2 -3.8412330494694960e+00 8.8872789112102391e-01 1.7041202117819637e+01 0 0 0
903 2 4.9299978391009560e+00 4.9349084241884372e-01 1.0526504134963586e+01 0 0 0
609 2 6.7525124114677526e+00 2.8063744975543448e+00 1.0865873889892438e+01 0 0 0
832 1 6.2959531683602474e+00 9.9505932368748926e+00 1.4810774963229175e+01 0 0 0
611 2 6.3063832419636343e+00 2.0703628317726319e+00 1.8208312541995575e+01 0 0 0
613 1 1.0323611675275785e+01 6.1708910345322812e+00 1.6760405431443466e+01 0 0 0
614 2 1.1028099261536152e+01 6.7803504190682231e+00 1.7044728629077348e+01 0 0 0
615 2 9.4214228152680377e+00 6.4985296015535470e+00 1.6985938116604743e+01 0 0 0