LAMMPS data file via write_data, version 8 Apr 2021, timestep = 21687000

576 atoms
2 atom types

0.08700552820113162 17.83299547181366 xlo xhi
-0.11799547179762958 17.62799447181324 ylo yhi
0.23200552819994283 17.977995471817234 zlo zhi

Masses

1 16
2 2

Atoms # atomic

212 2 3.1909733803728866 1.2777304632381372 1.372895279381296 4 0 2
211 1 3.4272159340060617 1.7884373403627813 2.212122067591986 4 0 2
213 2 2.59231395467889 2.002837880694658 2.6700094728807864 4 0 2
384 2 3.5823042517702706 0.44268351618499047 3.341930167250618 2 0 0
446 2 0.37827370203295074 2.6477276412483244 1.6275640660269475 1 4 2
445 1 0.19585364741528583 2.844609545113575 0.62869633583808 1 4 2
19 1 0.7549885893882791 2.160988192173058 3.114266412031887 5 2 1
21 2 0.8617007934823434 2.930504585890124 3.685782870696517 5 2 1
35 2 4.7695996934282325 2.6116213963511736 2.0210324805629014 0 4 -2
34 1 5.629283822135782 3.1275956961775337 2.1279036892349716 0 4 -2
36 2 6.370176889284481 2.467503460995811 1.8221093678723843 0 4 -2
48 2 7.477805424352112 0.5932250809915196 2.211122738609559 5 0 -4
46 1 7.149901790050232 1.0610196061786903 1.3823620667552892 5 0 -4
573 2 5.8673535152814615 2.907399418008962 3.722102523592098 2 1 -2
47 2 6.729230784245804 0.3676359640255478 0.9103933988023377 5 0 -4
362 2 7.542234398815557 0.07081293245804375 4.410660146836374 -1 0 -1
361 1 8.200826845020167 -0.010248251822563934 3.70484909628723 -1 0 -1
218 2 8.401706259755295 1.5661447411385894 0.617840465943616 -3 -2 2
498 2 1.8247087175113021 7.576840025313865 1.9561564692117284 -6 4 -1
496 1 2.7613499751413517 7.93236188840013 1.972262562397645 -6 4 -1
108 2 2.9647004118273608 8.60067483387876 3.6770211249479 2 0 2
392 2 3.13342362144499 6.952394280530916 0.6052533731597745 4 2 11
62 2 2.7328380901252363 5.512670327550749 4.507049334903174 -6 0 -2
166 1 1.0207351605123967 4.5929899939690735 4.222343939332431 1 -1 0
168 2 0.34847154991232027 5.324657898477338 4.095242551937683 1 -1 0
366 2 4.996111467773004 6.391689646724806 4.013640506300717 -1 1 0
542 2 5.965711627095786 4.76913039674082 1.421257958334733 -1 10 3
543 2 5.978478263007631 6.120795233870343 2.0172475215402574 -1 10 3
364 1 5.967513818713894 6.614672170879536 3.721489245776504 -1 1 0
541 1 5.880498749809503 5.708439337457632 1.129118051345971 -1 10 3
365 2 5.89290460056904 7.565455010442881 3.5914647217693734 -1 1 0
393 2 4.526991531316777 6.2797185515336365 0.31996813112015243 4 2 11
65 2 7.548849844244176 6.4498598116005725 0.27409162528259706 0 -5 6
497 2 2.577956248745044 8.786507985140783 1.5395916283403834 -6 4 -1
493 1 2.3723952580884924 10.546018599617755 1.3676364694017602 7 -3 0
495 2 1.974557883772614 11.094664785966895 2.052478074173458 7 -3 0
295 1 1.7433435368889423 11.883021958354963 3.5686937283324287 -1 -7 1
423 2 4.215689620381909 10.551661704341978 1.228973867207353 3 2 5
297 2 1.5619223523752244 12.810152366695478 3.900354931506421 -1 -7 1
494 2 1.9828918283862482 10.979868543460455 0.6034121298083539 7 -3 0
296 2 2.045317738194122 11.357375443545955 4.376807716691544 -1 -7 1
106 1 2.9088427023982972 9.037324081860051 4.611995400151914 2 0 2
77 2 1.0013458438672358 9.051312441547973 4.512715916658508 -1 -6 4
259 1 8.831051980110416 9.50441245785952 3.202391241173397 -6 0 2
471 2 6.065780897510991 9.763706252932081 2.4468704181371224 0 2 -3
469 1 6.341088468607503 9.407821745778596 3.2937302727245252 0 2 -3
470 2 7.3448066030880605 9.319101764342573 3.261300278411003 0 2 -3
421 1 5.131543876474419 10.465124871894137 1.000151022308185 3 2 5
422 2 5.4017926949613875 11.300965791657598 0.5634958927379626 3 2 5
382 1 3.7836635845770368 17.392414910707853 4.008026270493289 2 -1 0
53 2 0.1275264973783292 13.474386551080086 1.8555507712447787 4 0 2
173 2 1.2763737259221757 17.592813522969763 4.355050799423616 0 -5 2
395 2 1.8048908701068263 17.122395924733304 0.8214987128451615 0 -2 -1
233 2 2.341494941664955 14.174200784933518 0.8811361961975307 8 -2 2
172 1 0.5082658538122148 17.037155816508534 4.016647931960723 0 -5 2
174 2 0.7376309748311556 16.918531427651864 3.099928916057072 0 -5 2
396 2 1.116029080957195 15.8254567795639 1.1683276702262935 0 -2 -1
234 2 2.4812111617109007 14.073648357975529 2.4314594980913737 8 -2 2
394 1 0.9924574641397665 16.812802239441318 1.1782991477413334 0 -2 -1
232 1 1.819881634013181 14.1358373396709 1.7242323999317095 8 -2 2
353 2 3.762519004858355 15.67050689550099 3.8725270594167203 2 2 0
352 1 3.811540397377167 14.836132276927769 3.397109778100654 2 2 0
354 2 4.174048408035604 14.10638010184687 4.023495896119794 2 2 0
330 2 5.256166703049735 16.192293518756056 0.39808057312929607 -2 -1 2
459 2 4.878816982454532 14.766802514538869 2.0965495006241714 -3 -5 0
181 1 8.05275135367659 15.190142179451572 2.6328225922569497 0 0 6
182 2 8.200422955665697 16.075352570023504 3.0693916749627195 0 0 6
457 1 5.626243405111271 14.868925180304768 1.395682065917544 -3 -5 0
458 2 6.449853388183001 14.969862895769138 1.8246467723461717 -3 -5 0
201 2 7.767622963465237 14.044568136707978 3.9818064577837937 1 -1 -4
183 2 8.772018149875118 15.064962692631314 2.000447811205005 0 0 6
102 2 5.431630442965005 13.607038685386977 0.4017082189901366 -3 -3 2
401 2 1.585988439794735 3.684226662724356 7.226795165376023 4 3 5
177 2 1.5560361362906052 1.811725280926089 5.999206012229918 0 -1 3
175 1 1.986775877793084 1.000890691537937 5.726162089139351 0 -1 3
176 2 2.076911540185503 0.3883821265605293 6.444151349478125 0 -1 3
400 1 0.8157110445956838 3.477862432166408 6.655775283605556 4 3 5
122 2 4.477063883540447 3.921451440689508 6.963070687587922 0 4 1
357 2 3.0710899965002034 3.735611859864633 9.034460650310704 -6 -3 -2
383 2 3.493185121825754 0.04327330367355671 4.856581778330401 2 0 0
146 2 6.8051273118113444 3.459944402935063 8.735208396758548 -5 -4 -2
299 2 8.009445836624534 0.9515408884289985 8.018172937453423 -1 5 -5
571 1 6.074782600895422 2.6666639258220397 4.684944278195509 2 1 -2
572 2 6.0080938318474075 1.7161989936136146 4.896842923404464 2 1 -2
341 2 7.987279698391023 3.45542077398479 5.025221590174712 2 -3 -3
123 2 5.254639086825622 3.6514455573785747 5.669391123608501 0 4 1
514 1 6.105180243068766 -0.06631188663494464 5.467767174412968 4 -1 0
147 2 6.7210141212907075 3.9044596687126627 7.332860806610108 -5 -4 -2
145 1 7.375476806961361 3.8378501512535244 8.066405738133184 -5 -4 -2
300 2 8.528407755740371 2.4365749217492407 7.866852328723723 -1 5 -5
340 1 8.80986304988715 3.8660946659285322 5.421921135515111 2 -3 -3
298 1 8.815745495209722 1.4743525967915314 7.9451375338421455 -1 5 -5
167 2 0.8014970937742609 4.395775846314792 5.175584542134127 1 -1 0
61 1 3.5766980832895245 5.967827133947956 4.7678572569687345 -6 0 -2
355 1 3.0219716806537305 4.384538061258533 8.283131034829825 -6 -3 -2
107 2 3.03606396076021 8.282971126713026 5.181075686166127 2 0 2
308 2 4.055986750419748 7.201734016703536 8.073699331045674 -2 0 -8
307 1 3.137954538310415 6.936701833117862 7.823576521129765 -2 0 -8
309 2 3.2551028857076028 6.475846401876926 6.9687402952064135 -2 0 -8
63 2 3.954214680141268 5.357576132536868 5.471143253942189 -6 0 -2
204 2 2.168241964000637 8.219693913056627 8.365218071296027 -3 1 -5
356 2 2.494916231110118 5.160242524712047 8.568857691265809 -6 -3 -2
121 1 5.015203572720005 4.39724738927223 6.315770598798556 0 4 1
380 2 8.575258884912266 7.812725885696145 6.758887380874279 0 1 -2
528 2 7.097927912144003 6.504348137369399 5.220187520341483 -1 1 -2
553 1 6.08557537733089 7.225490438951418 8.103828619597481 -2 0 1
554 2 6.4464666859793205 6.676035629174219 7.367239482958429 -2 0 1
527 2 8.072554467624096 5.490242574953359 5.8823550841823335 -1 1 -2
526 1 7.722384472514653 6.3831721439272755 6.002285810068499 -1 1 -2
555 2 6.230841069620894 6.633487898752225 8.914868308073622 -2 0 1
431 2 8.735930021525572 4.747016042127666 8.682119343897039 4 7 2
202 1 1.7774639154254068 9.047975822630184 8.61027219482096 -3 1 -5
251 2 4.344514875072111 10.153292175462928 5.042823947507473 2 -5 1
311 2 1.3280131976837553 11.585839916788876 6.598685284929757 -6 1 2
310 1 2.2217742702884635 11.383959869923341 6.285101680155508 -6 1 2
312 2 2.4568874812642316 10.499425732946152 6.635612242106149 -6 1 2
203 2 0.9549636108695922 9.242694061355449 8.09689348619539 -3 1 -5
381 2 8.7857353760648 9.400992948258892 6.6482841098510335 0 1 -2
235 1 8.422306834726749 11.111733948297504 5.584664508545956 -1 -6 -3
477 2 8.833223134829286 12.844276657101286 8.706830906739638 -4 4 -2
252 2 5.708041070160354 10.414452508756604 4.691875298528455 2 -5 1
545 2 6.812362138474047 12.503892240937752 9.034116583968832 -1 0 5
282 2 4.551946332539207 10.331710459242109 8.66510910441765 2 -2 -3
250 1 5.092746728783902 10.682576165708378 5.358691531518713 2 -5 1
387 2 4.898419833748685 12.285607664604308 5.398649671280896 0 -9 3
139 1 5.982837759300393 9.877384523048542 7.948828667580093 -3 5 -2
141 2 5.7747874152513745 10.02638348822437 6.983385037509924 -3 5 -2
140 2 6.167917798820043 8.957780925702401 8.162057024006753 -3 5 -2
546 2 7.07932244849654 10.924727677654731 8.73968381494316 -1 0 5
236 2 8.066081924322981 11.964166252413447 5.327913348043187 -1 -6 -3
237 2 8.682448609304483 10.745962401592491 4.686250194060654 -1 -6 -3
303 2 1.1985712388574166 15.259781744472049 4.804267458717372 0 -3 3
98 2 1.8146393339469724 17.06989982474449 8.482116471467565 0 -1 -5
301 1 1.2258508361362632 14.299273859256594 5.128797899463944 0 -3 3
59 2 4.010735039077514 14.032490565715007 6.4857487313836195 -1 -5 1
60 2 3.197666519360254 14.126456655376366 7.702847963955674 -1 -5 1
302 2 2.042844873123071 14.314696778860691 5.764201092784791 0 -3 3
99 2 2.5555394685959234 16.077485562644267 7.448599515976318 0 -1 -5
58 1 3.347991224617313 14.628808884656783 6.908936371656799 -1 -5 1
97 1 1.8319477039894063 16.73298456232432 7.610902934862536 0 -1 -5
516 2 5.333477474307565 17.307557322392217 4.917200161682805 4 -2 0
188 2 8.952489317837848 14.649529394716843 7.18852976888087 0 -3 -4
200 2 7.828614204518868 14.195408777450616 5.489373899149842 1 -1 -4
385 1 4.858100589880012 13.234993189042822 5.3641684080651055 0 -9 3
187 1 8.580807313539797 15.308852239466065 6.575209849203447 0 -3 -4
157 1 6.289533155804451 16.159812694217436 7.825041278366663 2 1 0
159 2 6.4925429709489215 16.80317442314009 8.569618483689302 2 1 0
199 1 7.509614816440432 13.592501885452211 4.845417754814941 1 -1 -4
515 2 6.125950900600854 17.19340819377177 6.286515302649261 4 -2 0
242 2 5.6837385709579396 14.557608586744943 8.827134486234607 4 4 3
158 2 7.143770246638375 15.810457118069719 7.453639082979968 2 1 0
386 2 5.813812783871544 13.41668186883508 5.261624945755285 0 -9 3
538 1 0.6750767028160484 2.0040276815697653 11.41928193558847 6 -1 9
69 2 2.279268996383893 2.2799061248057915 10.809451680648596 1 -7 -4
67 1 3.0964022969850653 2.7712066109124045 10.52777368647484 1 -7 -4
540 2 0.8919764997378845 1.955555053519713 12.372751829014797 6 -1 9
68 2 3.1941670500474877 3.564245565466077 11.068226219197133 1 -7 -4
89 2 4.576200616621822 0.30414549943398056 12.704288610122015 -4 1 0
6 2 4.93884202257969 2.5851211058352295 10.264783314991707 3 2 5
170 2 6.628496265530765 1.1331580137321133 10.002073177784395 7 1 -1
5 2 6.011804920570822 2.9034068604506396 11.302643206163419 3 2 5
4 1 5.890120953609298 2.898834503791931 10.310211679986514 3 2 5
49 1 6.348623734557025 2.8412724624420345 12.841077743618733 0 -1 0
51 2 5.7564125437313125 2.0465268490609287 13.11973023145005 0 -1 0
50 2 5.776044793770505 3.5566515442563595 13.159589620286036 0 -1 0
169 1 6.798887773397875 0.19106593222561458 9.778755338317524 7 1 -1
33 2 7.905098295378405 2.8780119724325943 13.08982361839856 2 -3 1
88 1 4.704720301704125 0.8933300017431002 13.4703447084869 -4 1 0
31 1 8.90856967030182 2.9080861740320563 13.290620037822475 2 -3 1
563 2 2.3355640581206445 6.216361914083451 11.628779401545478 2 2 -2
562 1 1.4805622746631582 6.6767983582476775 11.787965151554367 2 2 -2
564 2 1.465755699847051 7.503248327149796 11.29010755891327 2 2 -2
348 2 0.6962987592604091 5.696243910835488 10.449401549705915 -2 -1 -8
289 1 3.695928040783558 5.275510756408293 11.53038705271228 -8 1 0
290 2 4.0727095743135315 5.316472648987846 12.459540565624819 -8 1 0
291 2 4.52314909574339 5.47661593841101 10.977297240357716 -8 1 0
346 1 0.3081083147672513 5.411115043608432 9.601481382588407 -2 -1 -8
227 2 6.467420396476036 4.730681848977086 10.431567080241425 0 -2 2
228 2 6.959117086896144 6.117996297927037 11.048093065192717 0 -2 2
262 1 8.294969410917457 7.168200924487399 11.606875022625422 -2 1 1
264 2 7.819647116083245 8.026566375831612 11.81874891692219 -2 1 1
226 1 6.2324063749117276 5.715110081456798 10.487877094402515 0 -2 2
263 2 8.947028173051008 7.401855281999691 10.93153167073222 -2 1 1
518 2 8.945542512226979 6.278175759539577 12.639247048799485 -6 4 4
277 1 0.9531484067014907 9.260670665583188 11.207917016165883 -1 -1 -4
279 2 1.2199779249347529 9.36381072671745 10.246104896077696 -1 -1 -4
278 2 1.534729488175851 9.916358495662072 11.734057122348515 -1 -1 -4
336 2 3.6187979804180603 10.886939741179726 12.346917620557331 1 -6 0
334 1 2.598830062717052 10.7495465199894 12.64034370535504 1 -6 0
280 1 3.863515034910757 10.684688892862807 9.288115426838106 2 -2 -3
240 2 1.5952100926420165 12.118966398666918 12.878414943932071 0 -3 0
238 1 0.9295223852728252 12.849104714186158 13.10476684008779 0 -3 0
335 2 2.6199736819220822 10.319167003036336 13.479552233033639 1 -6 0
281 2 3.119939474060848 10.10819165750992 9.205420076119964 2 -2 -3
372 2 3.268138070287916 12.209227854847512 9.107569634584578 -5 -2 1
326 2 4.553755827559693 10.82606486804502 10.67195883895125 -3 3 -4
544 1 7.457802203656968 11.751669777559044 9.145668919407829 -1 0 5
325 1 4.943603899455743 10.985630834891946 11.565873875583254 -3 3 -4
127 1 6.909900558223572 9.35301155894462 12.541438566981178 -1 6 -4
327 2 5.578202860295742 10.247874006503116 11.771203358800227 -3 3 -4
425 2 5.61818193523548 12.404588945321745 12.39759292397511 -7 0 -1
128 2 7.531348599114826 10.114968048935022 12.51597735555114 -1 6 -4
125 2 8.522245478109232 11.394911875420732 10.423809052943987 -1 7 0
424 1 6.208607217244793 12.941777049643123 12.970984097906571 -7 0 -1
129 2 6.8418556993676685 9.216540095052899 13.527469917494011 -1 6 -4
370 1 3.230816453999306 13.22765991909359 9.239041508024783 -5 -2 1
485 2 0.339166006045654 14.093403163028837 10.236139769304067 -1 0 5
531 2 1.4113426934384157 17.236202657366547 11.350281223171187 3 3 4
529 1 1.7381320555575284 16.933263081262808 10.47516484103168 3 3 4
455 2 3.567283109980751 17.050956733475356 10.77698370027533 0 3 -6
486 2 0.933622063795943 13.906811593142104 11.561940254734411 -1 0 5
484 1 1.0734268956634365 14.406805693991272 10.780133490567826 -1 0 5
530 2 1.4761836565206634 16.01066889613677 10.57988019703984 3 3 4
371 2 2.3851952488199513 13.379408661729022 9.659312095919239 -5 -2 1
55 1 0.8112496398127139 17.037345916354035 13.300463244805444 2 1 -6
454 1 4.400017156000578 17.246397550834484 11.242253008323619 0 3 -6
524 2 4.519958624006734 15.627969224097336 12.652147743770053 3 2 0
171 2 7.46837629939744 17.611688445907784 10.430064076992835 7 0 -1
478 1 8.608896412503963 16.922901332859233 11.473854981995553 -4 -5 0
479 2 8.517615804950815 15.905762514102184 11.297305487538324 -4 -5 0
254 2 8.514269857350014 16.8673422767276 13.142747802224388 2 1 3
456 2 5.198180046423594 17.171511942233614 10.68208101610609 0 3 -6
377 2 7.306537960914971 13.89875545779331 12.012463885158546 2 1 4
426 2 5.6464085420465775 13.69986355508404 13.213238280760498 -7 0 -1
378 2 7.161399992980518 14.24117263909403 10.618861226697236 2 1 4
376 1 7.692299488248644 14.48833962801493 11.346622635176528 2 1 4
523 1 4.631150285711269 15.215417471232438 13.511583553435148 3 2 0
241 1 5.759223979799214 13.742391108639788 9.34417898335783 4 4 3
243 2 4.830877299685012 13.422162357818124 9.471629562410449 4 4 3
12 2 3.8022206858488605 0.1195920717891417 17.52097113927088 3 0 3
10 1 3.0326788204431323 0.6459768245783452 17.721566337647786 3 0 3
186 2 3.05618530132599 1.585717889624256 13.926455724569745 0 5 -2
184 1 2.0626629632297 1.6470434246150925 13.919408484934364 0 5 -2
185 2 1.7136802016166437 0.7259105011554661 13.743204100700217 0 5 -2
551 2 1.712362205139236 2.159722572338244 15.609996057084638 -6 2 0
550 1 2.043975495159089 2.738476860380432 16.3610132198598 -6 2 0
552 2 1.3260666710450197 2.9528741035335124 17.02140618126757 -6 2 0
11 2 2.8700651759445592 1.3608399255121104 17.04830388318726 3 0 3
90 2 5.0692636216605935 0.3294573753689791 14.201369122166088 -4 1 0
391 1 3.6903173800818414 6.716294353353788 17.610837452294408 4 2 10
132 2 2.606171432349796 4.450151420820013 15.559716476545175 2 -2 2
29 2 1.2949698630255913 7.081202490253847 13.585435040276352 2 3 -8
130 1 3.0998146519522436 5.289602413532873 15.458069897583895 2 -2 2
30 2 2.113389909595528 6.489170029457857 14.813775091900544 2 3 -8
28 1 1.4900660044470833 7.190248357143375 14.567760462402347 2 3 -8
131 2 3.2526273824252447 5.588281337705504 16.367740220566688 2 -2 2
441 2 4.391705987356974 5.169448217631125 14.546819004700943 -7 5 -1
428 2 4.244587870961747 8.230585527836555 16.94615439572262 2 0 -3
64 1 8.326882133722684 6.498618764129172 17.3968086061847 0 -5 5
66 2 8.818319748059247 5.64431031550849 17.570487870626465 0 -5 5
18 2 8.03612955184668 6.1073825526932 14.252388710535978 -5 1 1
439 1 5.103241400820507 5.0879065051479655 13.850521225093994 -7 5 -1
440 2 5.83472858296059 5.478090390320311 14.323339649402135 -7 5 -1
315 2 6.893242723995888 7.903437021181271 14.875990149118865 1 2 2
16 1 7.2677218463397475 6.289817472161879 14.906282384798583 -5 1 1
17 2 7.587679981934225 6.148400306560741 15.835550052314067 -5 1 1
137 2 2.0491687291815133 9.020336960193838 14.944819812648868 3 1 0
138 2 3.1950060686000255 9.65747604243052 15.920801676175188 3 1 0
120 2 0.09405686734366667 11.37363522108951 16.9080659242576 -2 -1 -3
136 1 2.520177066219593 9.876797408267434 15.208722313153478 3 1 0
118 1 1.0974708336624635 11.369964443437748 16.941579302214926 -2 -1 -3
119 2 1.4654395106533702 10.825815489858197 16.21813644078476 -2 -1 -3
576 2 2.1130604051518826 12.83355684266411 16.856402264000096 -4 6 5
429 2 4.936124067200194 9.671868600289498 17.526345637377812 2 0 -3
427 1 4.623213063156664 9.148370103042678 16.709063849552365 2 0 -3
390 2 6.633277190913004 12.670871472263329 14.614864967191066 5 -6 -1
313 1 6.724533644774876 8.883280334332017 15.044643424518211 1 2 2
314 2 5.843138664507678 8.935337223920657 15.496316341406816 1 2 2
179 2 7.884737794698433 9.750051645000177 15.917049743294507 -3 -5 0
389 2 7.305465417982556 11.867202564483689 15.812319839096016 5 -6 -1
388 1 6.79476496364406 12.65416082543971 15.556477852848323 5 -6 -1
101 2 5.711198985361401 12.696022562985114 16.767690502015146 -3 -3 1
100 1 5.1456260083581515 12.797875803791062 17.567277815265374 -3 -3 1
178 1 8.388238618620544 10.59711843039606 16.180733213301917 -3 -5 0
57 2 1.312389611450056 16.31544653479846 13.694614755842421 2 1 -6
575 2 3.5769997489323493 13.38444733807731 16.92099352398187 -4 6 5
337 1 2.2428317992797684 14.81602806933129 14.285835842425788 -1 2 3
338 2 2.510302716995756 14.55926528070098 15.212512941732383 -1 2 3
574 1 2.625336798999728 13.686836331425724 16.730945054552084 -4 6 5
525 2 3.607468625056644 14.96669539231323 13.786557954449787 3 2 0
339 2 1.8901321288045385 13.98870743895838 13.890149145759759 -1 2 3
56 2 0.21272353023789264 17.36426168979522 13.955862300473987 2 1 -6
407 2 8.147709303132684 13.820282934196914 15.197044158391638 -2 3 1
408 2 8.761759114049685 15.218424719810821 14.691346652502972 -2 3 1
116 2 5.5576596890924685 16.191795825596827 14.449439740816922 2 -3 -2
329 2 5.475647338983749 16.81685697105356 16.679345252061495 -2 -1 1
253 1 8.52009047169181 16.772845332808053 14.140233047494293 2 1 3
117 2 6.950917577111915 16.898364975950937 14.901617569594801 2 -3 -2
115 1 6.016934567344908 16.878144092378708 14.979283062287095 2 -3 -2
328 1 5.303407640429529 17.073399097313235 17.633299106431238 -2 -1 1
406 1 8.905785751205636 14.215440621388007 14.756298598197482 -2 3 1
442 1 10.995312739764838 1.3877777838772738 4.28555966548481 -2 -7 5
320 2 12.069490836137135 0.5073654716229349 1.4236032426532357 0 0 -7
321 2 11.077085935591638 0.7789797492108167 2.60033887476057 0 0 -7
444 2 11.841457363381416 1.8697211389535833 4.200962858065052 -2 -7 5
322 1 12.897237072693773 3.3414149172292054 3.5910728007084467 4 4 1
324 2 12.97057103054861 3.7087046208858627 4.468462899180373 4 4 1
492 2 11.276484406225878 4.109281236694861 3.149207982148486 -1 2 -3
319 1 11.167430465277777 0.4064444723638023 1.7061886345350177 0 0 -7
363 2 9.036806410951453 0.34990595170347133 4.015380232698603 -1 0 -1
521 2 9.495124891979184 3.4602936951094816 0.46163520414392956 5 7 3
342 2 9.302227571864197 3.962114458304432 4.604942043581282 2 -3 -3
219 2 10.021736259359079 1.3849767064292537 0.42513702886056 -3 -2 2
323 2 13.422515003932546 4.019107141258211 3.0428877528061697 4 4 1
504 2 14.355563492175675 1.48265705374238 2.0085311322113286 3 4 1
244 1 15.64510140069049 1.5914154434544596 3.233647205412336 1 -1 -6
246 2 15.632426562729194 0.6435275344639036 3.5287032738966917 1 -1 -6
245 2 15.096637312031197 2.0484832073271857 3.892547635515143 1 -1 -6
502 1 13.710525970914683 1.188910084670511 1.318123237380437 3 4 1
20 2 17.614813093396474 1.7871631735799989 3.3300518929280036 4 2 1
503 2 14.056616186395932 0.2676348589032701 1.133695052116991 3 4 1
83 2 17.330297120158665 0.09488379959333741 0.39097502187243155 -3 0 6
84 2 16.548798755209784 1.3623520339439743 0.26598195951115033 -3 0 6
447 2 17.46393037341755 3.727517580571164 0.6100989731518335 0 4 2
520 1 9.763142117262833 4.388556995344866 0.48911373070339415 5 7 3
491 2 10.069275626054118 4.541594926494323 2.172129173777674 -1 2 -3
490 1 10.465878295906847 4.614661154259773 3.122281819164015 -1 2 -3
248 2 10.751852420554437 7.524503303072937 1.5793304622612385 2 5 4
500 2 11.170204876349286 7.556242856302906 3.8308434271441656 -3 -2 1
499 1 10.535873963221473 7.318333326462536 3.117447160410362 -3 -2 1
501 2 10.43202918650249 6.300599182374855 3.2356354519024 -3 -2 1
247 1 10.74711879287353 7.718018999024357 0.5903299155952791 2 5 4
276 2 13.304664824242268 4.935565463797867 0.8679973158092055 6 3 0
249 2 9.883672426701755 7.478027452401644 0.2493037243730889 2 5 4
481 1 16.492025654872986 5.207640172491874 0.6119231850617219 -2 -2 -5
3 2 13.754608444484875 7.73128471813617 4.096278221489184 -2 1 1
1 1 14.27918001122657 7.426712857669153 3.2942989776741607 -2 1 1
2 2 14.234890360720154 8.20702290628099 2.748869950530197 -2 1 1
275 2 13.791009220822186 6.00869606857036 1.9274794273925726 6 3 0
274 1 13.928330119007414 5.099751914594259 1.6308717662802064 6 3 0
192 2 16.94902076874581 7.7755797197352665 4.563046942850335 0 2 -1
191 2 15.770270222390156 7.161015351949882 3.831993804924452 0 2 -1
483 2 15.544012606757796 5.126400124451323 0.8111706351312551 -2 -2 -5
72 2 17.239891745624032 7.104264469997275 2.6444749081712997 -1 3 1
71 2 17.113222878180103 7.760174345199651 1.1856916540114495 -1 3 1
190 1 16.65949056024897 6.8836777391074015 4.220318391558127 0 2 -1
70 1 17.675485920676508 7.240368636446969 1.7973373665458037 -1 3 1
482 2 16.904154126970038 5.931121898097805 1.1931939699771745 -2 -2 -5
261 2 9.480849623948528 8.804253859555178 3.4039326794692597 -6 0 2
193 1 9.991965728387747 10.219729541661922 0.6889129772357409 -1 4 -1
286 1 12.304312919773624 11.307255672309648 1.5754626170594632 -3 -1 4
288 2 12.256955937820802 12.243263191768662 1.990316445179424 -3 -1 4
287 2 11.426047515764761 11.028710350276567 1.2039860473185398 -3 -1 4
194 2 10.276501421845694 9.326434061276851 0.5314734200125671 -1 4 -1
105 2 13.330779974618446 10.410164964758152 2.0046041730709865 1 1 -2
260 2 9.179665438382106 9.834671827579026 2.3291572824460727 -6 0 2
557 2 14.93127796119279 9.312055563017898 0.9812864376543811 -1 -3 1
103 1 14.087011652261664 9.806913433296847 2.2928293657875707 1 1 -2
104 2 14.89969857693243 10.263632014253838 2.7075666677005508 1 1 -2
568 1 16.264418960930904 11.011365162179349 3.510431762239983 0 -5 5
569 2 16.656702965866927 11.814494517560776 3.0335184428506126 0 -5 5
570 2 15.711822743570055 11.46229188580051 4.192670611862864 0 -5 5
78 2 17.47544665483434 9.967502004564178 4.198007640494142 -2 -6 4
52 1 16.998479210843538 13.073451561066987 1.9282231565044303 3 0 2
556 1 15.614954632634014 9.009509246858391 0.323548029855603 -1 -3 1
397 1 12.227527171209283 13.743840554917458 2.7164609178375776 1 -3 -3
399 2 12.124987987819315 13.721082682935245 3.6627886162931835 1 -3 -3
398 2 11.53440463454606 14.235364946349875 2.2432993939187984 1 -3 -3
269 2 10.80175481292983 16.203355855149358 1.5767435825454486 -1 1 0
268 1 10.430831008111161 15.266404299300826 1.390433827559405 -1 1 0
270 2 10.586215722255666 15.088673538699089 0.4063822010726292 -1 1 0
152 2 14.498572979972135 15.867715300212808 0.7146512473112494 -1 3 1
54 2 16.42968335585544 13.765786646065681 2.1907927134161675 3 0 2
417 2 16.598706499468612 16.659899264752863 3.993494456155393 -1 -2 2
39 2 13.982317962852102 14.376329698617866 2.4303704376578708 5 6 1
37 1 14.85686074917516 14.648403661167482 2.1822239976455866 5 6 1
38 2 15.093201017687651 15.288143287377853 2.852909419355617 5 6 1
415 1 15.642228376773097 16.752580660025224 3.9390306173167775 -1 -2 2
443 2 11.116544409747103 0.7575261161650355 5.051445418013134 -2 -7 5
266 2 11.797365544428146 2.334668389722447 7.090556724827201 7 -1 2
265 1 12.360839739086169 1.6782672473966203 7.471406969015307 7 -1 2
474 2 10.05197363987146 0.29146295077037887 6.939685264686728 1 -3 5
267 2 11.919004600525575 1.284010228601487 8.254254143628225 7 -1 2
13 1 10.938032108041961 3.9933761138819492 7.088017756360098 2 5 -2
15 2 10.195231745404142 3.700827313966967 6.474094518923771 2 5 -2
402 2 17.766993497152164 3.217719476292551 7.274067739617823 3 3 5
404 2 13.59748337893898 3.534989176356175 8.348187503605162 5 -1 -8
196 1 16.44446801930872 2.5428570612379047 7.984294167204519 0 0 3
419 2 13.834952278410691 1.6561343424353976 6.529533381030597 2 -1 2
420 2 15.348117440779284 2.213129566476043 6.618320374509879 2 -1 2
418 1 14.686819207916614 1.6319047025752644 6.109580051365701 2 -1 2
450 2 14.765685644271814 -0.024134443621139756 6.395705194111293 -2 4 8
198 2 16.531711534011954 1.8744972925425647 8.677588228715619 0 0 3
403 1 14.143151347123432 4.187996155216686 8.774211601441815 5 -1 -8
197 2 15.85489176316551 3.1593932724338276 8.480493182781819 0 0 3
549 2 13.154526898542075 5.776514738353907 8.695746710935286 1 -4 0
14 2 10.571214597891448 4.431624102843051 7.856431534315146 2 5 -2
436 1 12.478658475123197 7.5812968552640045 5.09317612673561 -6 -4 8
437 2 12.237644867871422 8.163746350197206 5.868945982249342 -6 -4 8
438 2 12.508552530027035 6.61055678606087 5.316058327036758 -6 -4 8
162 2 12.259548584707874 4.5597735524255425 6.316183603380623 2 -2 -4
410 2 9.683578189533472 8.01474444485334 8.65590091213434 -2 -1 1
160 1 12.969892830628327 4.862517995955161 5.672902171468926 2 -2 -4
75 2 12.001449817059672 8.182350585899323 8.05188905102359 -4 -1 2
547 1 12.649352267886142 6.554669386404571 8.942131987667606 1 -4 0
379 1 9.016650156392346 8.591630359788537 7.1837711518894265 0 1 -2
95 2 15.549788900306332 7.255470597254489 9.02694145562932 -2 -7 -4
465 2 15.907476665213668 5.836432180318009 5.6905148022843735 5 3 -1
161 2 13.85863059170673 4.849373605215854 6.092845596043645 2 -2 -4
464 2 15.39552544526638 5.970199564223278 7.159629168394266 5 3 -1
463 1 15.331676087035916 5.433832942815825 6.340592594229041 5 3 -1
96 2 16.535800346908104 7.902751390269009 8.169117087262576 -2 -7 -4
94 1 16.165245691216864 7.043284446663771 8.341382085091434 -2 -7 -4
73 1 12.356545919311102 8.804099389282548 7.40901079982442 -4 -1 2
45 2 10.239495554820403 11.235064860385851 6.244599966951166 -4 -1 4
43 1 11.110414815263987 11.39322561963461 6.583771665319824 -4 -1 4
44 2 10.848008502739152 11.910746980160964 7.450251858203678 -4 -1 4
74 2 11.698979336318684 9.54257565214871 7.279173298887508 -4 -1 2
42 2 11.67732892518803 12.71964026456365 5.7978238442464445 -1 -8 -1
220 1 17.344254045547732 12.611435554259621 6.495421893088749 8 -3 -3
76 1 17.7907099614046 9.173426712613653 4.697776921542743 -2 -6 4
360 2 17.03959638286543 13.082648934300424 8.018747895033354 0 -2 2
231 2 13.759675752940367 9.845655286523039 7.325304453496861 -6 -2 -3
343 1 17.020996055924517 9.486928722719789 7.589343458451083 -2 1 -4
344 2 17.343190894177265 9.487839752360449 6.687593276182606 -2 1 -4
468 2 14.116141487266033 12.848168830278164 5.29489146917501 -4 0 -1
345 2 16.120153529202298 9.808143753930135 7.53641979021131 -2 1 -4
467 2 14.547835367859689 11.542101511430008 6.188730392242977 -4 0 -1
229 1 14.289361878170169 10.676992010117589 7.443542390966212 -6 -2 -3
230 2 14.029292863115097 11.13151148086039 8.258952740132175 -6 -2 -3
466 1 14.85036992598561 12.230539738064937 5.497764945680281 -4 0 -1
222 2 16.489091642807953 12.454391907576229 6.104883070583853 8 -3 -3
473 2 11.222610450451963 16.89016731640995 6.767910169122068 1 -4 5
475 1 9.53410850334365 13.41264009546124 8.316430438997521 -4 4 -2
111 2 13.15308722912133 15.910448446227049 7.073790386887854 0 -4 2
40 1 12.21420167850345 13.528579412105758 5.4638834553143045 -1 -8 -1
110 2 12.288604456421542 15.856512064122755 8.382578021080487 0 -4 2
41 2 12.234446371109447 14.101837026526237 6.270176958356054 -1 -8 -1
472 1 10.478165704942509 17.390428006866244 6.355159726924982 1 -4 5
109 1 12.277360233295237 15.683928314369911 7.410176945161963 0 -4 2
189 2 9.2880903341494 16.001711797372206 6.3049751831719965 0 -3 -4
476 2 10.112760162340521 13.54075445466039 9.085897284698042 -4 4 -2
448 1 14.736156628445656 16.769483634142894 6.3821470701057965 -2 3 8
449 2 15.443915085879532 16.459265632800097 6.947870613717726 -2 3 8