LAMMPS data file via write_data, version 15 Apr 2020, timestep = 0

2016 atoms
2 atom types

0.0000000000000000e+00 1.8288973183000000e+01 xlo xhi
-1.1721331271169468e+00 4.5643067133102932e+01 ylo yhi
0.0000000000000000e+00 1.8991449228299999e+01 zlo zhi
2.5069657344900520e-04 -6.7830724662599984e+00 -2.5135441777521805e-03 xy xz yz

Masses

1 16
2 2

Atoms # atomic

429 2 1.6961930258985575e+01 -1.0530648471325990e+00 3.3835300011240604e-02 0 0 4
318 2 1.5198334661477022e+01 9.4220632592874711e+00 5.4706724788481846e+00 0 0 -2
648 2 3.1645060759886467e+00 2.3657825489846540e+00 1.1451957133107134e+01 -2 0 2
60 2 6.6022436640634119e+00 6.4734799650949659e+00 1.6534996042259660e+01 -2 0 -2
395 2 4.9725767003744217e+00 9.3931185788919862e+00 7.8477201912866468e+00 2 0 1
734 2 1.0217973961248372e+00 -8.6810120568497684e-02 1.6965834139398754e+00 1 0 4
698 2 1.5869269707521646e+01 3.5932611241577490e+00 2.2371951101480012e+00 1 0 3
647 2 2.2799919521001408e+00 1.4035225809400314e+00 1.0664734299343840e+01 -2 0 2
600 2 1.1678585385074198e+00 2.6821281149500393e+00 6.9318043405242484e+00 -1 0 4
328 1 1.1724913680742635e+01 8.8001606577799620e+00 8.8485483821079729e+00 4 0 3
839 2 3.4767106493948470e+00 7.9930058879772892e-02 9.1615115906968914e+00 1 0 -3
139 1 5.3613171814387970e+00 -5.6529705623053206e-01 4.5289126441522676e+00 -4 0 3
89 2 6.4647681982391365e+00 7.2515841351060164e+00 2.7774498413247892e+00 -3 0 0
1059 2 -3.3610180116866530e+00 3.1791311466695191e+00 1.6497924814862319e+01 0 0 -1
879 2 3.4295660581666461e+00 5.1211780911192468e+00 1.5017138406773203e+01 0 0 2
227 2 1.4154642354156529e+01 4.0592961175184552e+00 5.3121866216756644e+00 1 0 1
52 1 5.8515204129186449e+00 1.3164596744992600e+00 6.9368057721348206e+00 1 0 4
558 2 2.2504843810310158e+00 4.5699426469457336e+00 1.8965992279043835e+01 1 0 6
702 2 8.5944648012091527e+00 9.0590513018200856e+00 1.4935547818057113e+01 3 0 2
68 2 -1.3938184050062197e+00 5.0479384739520734e+00 1.2610202679919126e+01 1 0 3
893 2 -7.6307382971616811e-01 8.0597099654933668e-02 1.1425522953980433e+01 -1 0 -1
355 1 -4.9077623593979638e+00 -3.5951357340844758e-02 1.6292310763227739e+01 -1 0 1
998 2 1.0832000248017648e+01 6.0110757762135654e+00 1.0460428126532008e+01 1 0 2
351 2 3.0843220787810317e+00 6.1052288862692432e+00 1.7599299950245182e+01 0 0 2
978 2 -3.5975987227410666e+00 5.3291296686731098e+00 1.5042493001547056e+01 1 0 2
638 2 1.2205359642012397e+01 2.4544084713825280e+00 1.9841890263308554e-01 2 0 4
176 2 2.3198491940034920e+00 8.6755482904924133e+00 1.6995226544382831e+01 0 0 1
568 1 5.8988829658656474e+00 8.7493562092606680e+00 3.2610234624552441e+00 0 0 -1
699 2 1.4361629058897815e+01 3.2390691156949538e+00 1.9106488673749920e+00 0 0 3
523 1 1.0354392766877986e+01 4.6454075415017169e+00 7.8479256520054692e+00 0 0 1
379 1 4.3900237661466601e+00 3.2896904620205829e+00 8.6909930865664187e+00 2 0 3
342 2 2.6293043245523582e+00 5.4812011106513401e+00 5.9995550720875612e-01 1 0 0
313 1 1.5174536163675922e-01 2.6136085547865240e+00 2.9263890761651754e+00 2 0 0
637 1 5.2938974877034211e+00 1.6828875938393359e+00 1.8584621672049010e+01 2 0 3
596 2 4.6314722504890184e+00 5.7960993949473574e+00 6.0540943439726762e+00 1 0 4
570 2 5.1785059507080176e+00 9.2886383478872379e+00 2.9803688287536478e+00 0 0 -1
562 1 5.0560057296552978e+00 2.5211759854649745e+00 1.5785409370331733e+01 -3 0 -1
715 1 -2.1357085658802450e+00 4.7223561846841511e-02 1.6372274746042404e+01 1 0 4
996 2 1.2121216234555515e+01 -4.8509313776066199e-01 9.3058051804773800e+00 2 0 2
226 1 1.5075620750273981e+01 3.7530264373692779e+00 5.3637838469572285e+00 1 0 1
693 2 6.5535679470446793e+00 6.1995862986476720e+00 1.0009527939033831e+01 -1 0 1
251 2 9.8986867236765868e+00 4.3448546233096441e-01 1.3275310559426687e+01 2 0 4
639 2 5.0035307477012987e+00 2.0383000888346805e+00 1.7759120657470042e+01 1 0 3
493 1 2.1380529626198772e+00 1.0878653192391705e+00 1.6263152644145944e+01 0 0 1
802 1 1.4990734390915410e+01 -3.4321113512478940e-01 4.3843657336377877e+00 -1 0 1
671 2 7.7766903490181960e+00 8.3127647088700218e+00 9.6761636582018156e+00 2 0 4
47 2 -1.4322160118084741e+00 1.4038027256398462e+00 1.3848044742896155e+01 0 0 4
931 1 1.3456891002332711e+01 5.9799136745621455e+00 2.8383888637849202e+00 0 0 1
220 1 -2.7629731434605125e+00 6.8904386992153039e+00 1.7346190283254444e+01 3 0 0
1084 1 -2.8727227740067276e+00 6.6878810791281085e+00 9.7337198981604125e+00 0 0 -1
65 2 6.6068638835144853e+00 1.7222754752416711e+00 1.0319279895707481e+01 -2 0 2
810 2 8.3060684855115916e+00 1.7020293340405548e+00 8.3594917396006601e+00 0 0 1
436 1 2.6059609434771209e+00 2.5340039871742892e+00 3.6992062822788374e-01 0 0 4
314 2 8.9703052635589975e-01 2.4382023182437802e+00 3.4474055744153320e+00 2 0 0
583 1 1.1385849810687027e+01 4.9934857002979429e+00 1.1678973635665955e+01 0 0 2
336 2 1.4282066481408604e+00 -1.1269593312067971e+00 1.3067441612652981e+01 -2 0 2
684 2 4.5407056013220997e+00 -9.5947865366705110e-01 1.2586045398735957e+01 3 0 -1
851 2 9.8504979881734602e+00 6.4253515104574639e+00 1.7437772494340830e+01 -1 0 1
989 2 1.0168040231661983e+01 6.9742539802765506e+00 1.4100723395733063e+01 4 0 2
1024 1 9.8277232854854635e-01 -4.2763477957093676e-01 1.8601177459743592e+01 0 0 0
1004 2 2.7650004431973052e-01 3.8621075662103506e+00 1.1574695886795784e+01 4 0 0
646 1 2.9836015707164805e+00 2.0426573954064322e+00 1.0517211806950577e+01 -2 0 2
539 2 -2.1593961632003187e+00 6.8566887593197698e+00 8.3353603278377406e+00 2 0 5
758 2 1.3214456961006160e+00 1.0419027563002587e+01 1.6102721648910588e+01 -5 0 -2
88 1 6.7883596200727219e+00 6.3595683752656056e+00 2.5058716848199514e+00 -3 0 0
240 2 -2.8536933385541117e+00 5.4892781632546761e-01 1.1044466476128257e+01 0 0 1
564 2 5.7884201127427763e+00 2.1645746467467037e+00 1.5224520283787855e+01 -3 0 -1
950 2 1.4945212190643424e+01 2.2591132864122230e+00 6.4761539023128272e+00 2 0 4
972 2 5.2195927561696820e+00 4.1622144154754466e+00 3.8155857440659831e+00 2 0 5
299 2 -3.7785811060170773e+00 2.4795450535322470e+00 1.4425203702443463e+01 -1 0 1
704 2 1.2165575250259351e+00 -6.9428815356032714e-01 1.0843818289234404e+01 -1 0 1
471 2 1.3918459867569560e+01 -6.9458203578714461e-01 1.2218889323034277e+01 -3 0 1
586 1 -1.8965735061749855e+00 9.5939768740273959e+00 1.0386130469817051e+01 -2 0 2
1058 2 -4.7026784262892525e+00 3.9014085069302649e+00 1.6167324166360967e+01 0 0 -1
807 2 2.4369435859378275e+00 6.7868281278984863e+00 1.2966036997593422e+01 6 0 5
796 1 4.5297816307667844e+00 8.3220874308750581e+00 1.5248003209303887e+01 0 0 2
271 1 7.8592543704001772e+00 1.0114975287457767e+01 1.4933863180878839e+00 -2 0 1
448 1 1.3486890175376551e+01 7.7711631466542226e+00 1.2058635367014437e+01 2 0 1
61 1 -5.5178685396004212e+00 8.1759253090103119e+00 1.8332555833216258e+01 1 0 2
563 2 4.2725521962072373e+00 2.4869391465714017e+00 1.5234089179549336e+01 -3 0 -1
385 1 3.7466301643365183e+00 2.9556798598492930e+00 1.2898211929184306e+01 -1 0 1
650 2 -1.9816654079436598e+00 -1.0951806035196670e+00 6.8010980538751271e+00 0 0 -3
269 2 1.6004785000947379e+01 7.1736090686040459e+00 1.0812277167568416e+00 2 0 2
132 2 1.1056699459802413e+01 -1.1174328556899198e+00 1.4331628120728086e+01 -3 0 -2
71 2 1.3409935117136163e+01 8.1853931400875712e-01 3.8602902015469338e+00 3 0 3
248 2 8.1858404368835966e+00 5.8842561846578993e+00 6.9649161813713247e+00 -2 0 1
1114 1 -1.3463475247629741e-01 6.4804973460745892e+00 1.5328098581224385e+01 0 0 -1
768 2 1.4436570600277271e+01 8.7890687314793183e+00 2.2981368565711096e+00 -2 0 1
897 2 7.6173735774228613e-01 8.4226770019008104e+00 1.0199761828517667e+01 1 0 3
12 2 3.9357102211101451e+00 7.4311060391837440e+00 9.5169416989661109e+00 -1 0 -4
743 2 7.5524956840338726e+00 1.3629699468162984e+00 1.3872085532726873e+01 1 0 -1
788 2 1.3485840408326224e+01 2.6942681552883032e+00 8.3420039662024177e+00 2 0 -1
682 1 4.5380774575681873e+00 -3.9066552426041379e-01 1.3350047649326168e+01 3 0 -1
205 1 6.4650124317066542e+00 2.0311657585089198e+00 2.1078223888377714e+00 -2 0 1
254 2 1.0081683202310153e+01 1.3547819739164146e-01 2.1078961558163702e+00 1 0 1
797 2 4.2107346974124740e+00 7.3933754263784408e+00 1.5105729150279183e+01 0 0 2
249 2 7.3795158196637836e+00 5.5332206445751408e+00 8.1867091402035665e+00 -2 0 1
965 2 6.2948275786218080e+00 4.9313661633433412e+00 4.2581748832648741e-01 1 0 4
468 2 2.4343268405816572e+00 2.7424028785186558e+00 1.6105460034536616e+01 4 0 1
76 1 7.2401026322508404e+00 7.3417663566682538e+00 1.2968161904889884e+01 2 0 2
855 2 -2.4983748369091687e+00 2.5117327858637073e+00 1.8234447563382695e+01 1 0 0
1007 2 1.4963840931684416e+01 3.4177389057294185e+00 7.7316017125862252e-02 -1 0 1
469 1 -4.5817344607096011e+00 -1.3300839490482108e-03 1.2843176196347711e+01 -1 0 1
55 1 3.5174849906594030e-02 5.7391823908975592e+00 9.0196585716774766e+00 2 0 1
150 2 1.1339576905349196e+01 3.8707952996974857e+00 4.2206769385388432e+00 1 0 -2
854 2 -2.2142022468733256e+00 1.5151948757134956e+00 1.7123970109123537e+01 1 0 0
789 2 1.2637837825561395e+01 2.8315052198787578e+00 9.6620127583243676e+00 2 0 -1
949 1 1.4627551446538504e+01 1.6348533080303307e+00 7.1726046006066406e+00 2 0 4
241 1 1.0047363250887619e+01 8.4367959026456756e+00 1.7389967705307321e+01 1 0 0
544 1 9.7861464971903933e-01 -4.7034236436193699e-01 7.5538858033346763e+00 0 0 2
330 2 1.2711136567705385e+01 8.9948772022180563e+00 8.8611360156019998e+00 4 0 4
356 2 -5.0570167567624784e+00 -3.6994780766015289e-01 1.7209040410631204e+01 -1 0 1
935 2 2.9528131623406519e+00 8.1009864589060747e+00 4.3713217914973717e+00 1 0 1
389 2 9.8508020258645956e+00 -1.1406955765968636e+00 1.6377154147688081e+01 1 0 4
59 2 5.9057471296282742e+00 7.7881520646416327e+00 1.6094427744362168e+01 -2 0 -2
791 2 2.0971476136755967e+00 7.3151267102431916e+00 6.7274704802927205e+00 1 0 2
304 1 -1.3860180402541789e-01 8.0075168364556486e+00 2.7352509274833623e+00 2 0 1
187 1 -3.3435688121557039e-01 9.7066264251114927e+00 7.8158836552921009e+00 1 0 2
173 2 7.3637270942184969e+00 6.6563509705655255e-01 2.8062909150044022e+00 0 0 3
733 1 1.6434667576301365e+00 -7.1348846742294891e-01 2.1667421318617071e+00 1 0 4
843 2 2.8827110677698871e+00 8.1610481581974970e+00 2.3147921020106268e+00 1 0 1
964 1 5.3828564575035527e+00 4.7788400938408975e+00 1.7796806916801211e-01 1 0 4
686 2 1.2097232678602474e+01 2.9993873968964477e+00 2.3371011211538906e+00 -3 0 1
580 1 1.4315837427800442e+01 3.4927403551776859e-01 3.7163178570450067e-01 -2 0 3
362 2 1.2961398410240417e+01 9.4410464332431427e+00 1.2073549031023838e+01 1 0 0
111 2 1.0382503921920213e+01 1.4802118650884619e+00 7.2958859018886379e-01 -3 0 4
428 2 8.9649006918792242e+00 -2.7939609312567004e-02 1.8606588883871634e+01 0 0 3
779 2 -4.8574128767065545e+00 7.6595886511406217e+00 1.5282056629915049e+01 -1 0 2
545 2 9.0766828696320356e-02 -1.0023822861872644e-01 7.5177096088600184e+00 0 0 2
736 1 1.1990546588289693e+01 1.4711644347134940e+00 6.2130620601580819e+00 -2 0 1
1494 2 -3.3520596980368100e-01 9.6154760083215738e+00 2.0555584904802737e+00 1 0 4
466 1 2.5210051360422980e+00 3.5771293573797172e+00 1.5553669704565989e+01 4 0 1
856 1 -6.1202586452908685e+00 3.9644060481782892e+00 1.7145615176489503e+01 -3 0 3
11 2 4.5559758019185175e+00 7.2684332272201573e+00 8.1516377078123963e+00 -1 0 -4
247 1 7.3269474755140536e+00 5.6025910708611271e+00 7.2261569829161676e+00 -2 0 1
1008 2 7.1692108939943111e+00 3.8267267727248120e+00 1.8046687224980463e+01 -1 0 0
373 1 9.3996459458741271e+00 3.0784587721504879e+00 1.0894531053212246e+01 1 0 1
895 1 2.6573044264142265e-01 7.8072587713752828e+00 1.0737327945064806e+01 1 0 3
489 2 6.9099611777474763e+00 8.5513620805534618e+00 1.7563433925268910e+01 -6 0 -6
123 2 7.4217152506920270e+00 8.5785129162194202e+00 9.0605485740136193e-01 1 0 3
290 2 9.9987389059966461e+00 5.7684829364738199e+00 6.3841949264755762e+00 1 0 1
18 2 6.8438919571497854e+00 -9.9713272027900368e-02 7.3005758913206522e+00 0 0 3
229 1 8.4720250038430152e+00 1.8413402543254236e+00 1.6343552088957917e+01 1 0 2
511 1 1.1186134739759282e+01 1.0158280233237699e+01 5.0240045044041199e+00 0 0 4
1998 2 1.1594999412321243e+01 7.2294203202421343e+00 1.4531073789540921e+01 4 0 2
357 2 -3.9113890180554711e+00 1.7198043744664382e-02 1.6267150536392336e+01 -1 0 1
766 1 1.4529511324313935e+01 8.1472842874158395e+00 1.5444290993272867e+00 -2 0 1
930 2 1.0870478677334855e+01 1.0112884864684842e+01 1.1351554962796577e+01 1 0 3
581 2 6.7648756255699318e+00 8.6982465849518009e-01 1.8976271797526945e+01 -2 0 2
1596 2 6.8271260703689025e+00 5.8953931014551175e+00 1.3584833607267928e+01 0 0 0
1532 2 4.7778373182735914e+00 8.7472310145075163e+00 1.3223277958988428e+01 0 0 0
790 1 1.6820353354176869e+00 6.5462938659855432e+00 7.0900501290457161e+00 1 0 3
857 2 -5.5564376229225703e+00 4.3771406663026102e+00 1.7849142883436400e+01 -3 0 3
613 1 1.8413417177160207e+00 9.6136309943754306e+00 1.3855225416314578e+01 -1 0 2
321 2 9.4759535078003072e+00 8.2730161870381735e+00 6.6265744228827836e+00 -1 0 1
58 1 6.7385859472990264e+00 7.4199189574246969e+00 1.6406196023196539e+01 -2 0 -2
406 1 3.7884682784109867e+00 9.6024401282236784e+00 1.9693985921782564e+00 -1 0 3
270 2 1.6925068369533623e+01 6.0376206792862321e+00 4.7911391821053906e-01 2 0 2
968 2 8.0777852006248754e+00 -4.3417165814999514e-01 1.2100841062733716e+01 0 0 4
242 2 1.0143574795477958e+01 8.5635191853761956e+00 1.6403085420058652e+01 1 0 0
798 2 3.9914461053744352e+00 8.8316369864707340e+00 1.5905597811521039e+01 0 0 2
853 1 -2.1068637553938299e+00 2.4356853105053013e+00 1.7372005266392542e+01 1 0 0
474 2 1.1943505238082013e+01 1.0950288401918988e+00 1.6161095399096208e+01 1 0 4
50 2 -3.8048280622679131e-01 5.3124732625276501e+00 4.7301950708096037e+00 2 0 3
257 2 1.7769869746619960e+01 5.9213855552784889e-01 1.2364936636151296e-01 2 0 3
412 1 -3.6997238228378659e-01 3.7791288250504547e+00 1.5480189190806600e+01 0 0 -2
222 2 -3.4745072684141456e+00 6.3573696534173321e+00 1.7784481281828793e+01 3 0 0
110 2 9.0216079198004078e+00 6.8155727792024678e-01 3.6331205497516389e-01 -3 0 4
703 1 8.8900515828516813e-01 1.0124233046000963e-01 1.0326644078673914e+01 -1 0 1
1003 1 -5.0461161335518945e-01 3.5813513044600542e+00 1.2087055375914748e+01 4 0 0
288 2 2.5897606362409991e+00 3.0965572725246560e-01 3.2062029337103453e+00 -3 0 2
206 2 6.8639242561351752e+00 2.2038249233969034e+00 1.2542002017438658e+00 -2 0 1
742 1 6.6030846923026418e+00 1.6362611747870419e+00 1.3781786491870362e+01 1 0 -1
350 2 1.0630283509537172e+01 6.2768652960133817e+00 1.7496756035649905e-02 0 0 2
1585 1 -4.0856652064255199e+00 4.0299398628424639e+00 1.2100901424053788e+01 0 0 0
538 1 -1.9064984072352007e+00 7.2951173747013147e+00 7.4660115890760945e+00 2 0 6
864 2 1.1698419048253918e+01 7.4471236060846167e+00 1.6683355408833738e+00 -4 0 3
850 1 9.8581978308408846e+00 5.5278036753438666e+00 1.7144456510491750e+01 -1 0 1
449 2 1.2860152922724913e+01 7.3433931321087087e+00 1.2607373782032994e+01 2 0 1
64 1 6.5846190803604365e+00 9.1794200407782611e-01 9.7461628532641047e+00 -2 0 2
882 2 4.3201056877093000e+00 4.7306069075916124e+00 1.4530036904141415e+00 1 0 3
818 2 8.7635708015459386e+00 3.3832198806639635e+00 1.5340334286637578e+01 -1 0 -1
10 1 4.1352221427271658e+00 7.9686105232532967e+00 8.7372938217901552e+00 -1 0 -4
951 2 1.5282545017161647e+01 8.8859550375190777e-01 7.2498251718522466e+00 2 0 4
595 1 5.0342674497698621e+00 6.6878029088420776e+00 6.0296742377134898e+00 1 0 4
744 2 6.0680245588654635e+00 8.8437056177568563e-01 1.3518059938798970e+01 1 0 -1
875 2 6.8935784451454367e+00 3.4693670089956559e+00 4.9167872496880749e+00 -2 0 4
16 1 7.4990084204369261e+00 -8.2183026998762632e-01 7.2575636923136875e+00 0 0 3
438 2 2.5303774975264726e+00 3.2669270288222725e+00 1.0062575694254252e+00 0 0 4
928 1 1.0271506471143821e+01 1.0283288015724143e+01 1.0618833555919664e+01 1 0 3
738 2 1.1583073527944739e+01 7.1652237051932177e-01 6.6019534124274424e+00 -2 0 1
57 2 -6.7997521092837854e-01 5.2198460914051470e+00 8.5315894956719127e+00 2 0 1
298 1 -3.3361260509597965e+00 2.1627346594193750e+00 1.3639070400852875e+01 -1 0 1
877 1 3.7511437500707610e+00 5.8312991245335173e+00 1.4433039509049847e+01 0 0 2
778 1 1.2721083765109736e+01 8.2116697729696195e+00 1.5546325195766419e+01 -2 0 2
876 2 7.2463117928307028e+00 3.9686717938778360e+00 6.3975783305568168e+00 -2 0 5
315 2 -4.1961310006385011e-01 3.3956282080119022e+00 3.1660832593790165e+00 2 0 0
929 2 9.3345651089961788e+00 1.0076486408577411e+01 1.0790965238067653e+01 1 0 3
54 2 6.3059921608572553e+00 2.0034072731777099e+00 6.3795388045433254e+00 1 0 4
203 2 -8.7622050903236126e-01 8.9961883783573402e+00 4.5614621533243218e+00 0 0 5
593 2 1.0574893303112054e+00 4.9551799760969892e+00 9.9243901552535387e+00 -3 0 -1
87 2 7.0352906227923162e+00 1.0053453929660353e+01 8.8905263452729510e+00 3 0 4
239 2 1.4584546798656774e+01 1.5688773685809099e-01 9.8029949515705344e+00 -1 0 1
33 2 3.3386138781092978e+00 -1.5065736994464451e-02 1.6739330563123005e+01 1 0 -1
1037 2 5.8227385038293109e+00 8.3188815601529136e+00 1.7026582441529312e-02 -1 0 -1
1409 2 -2.3519878990116077e+00 9.6239414827693661e+00 1.1845596076442927e+01 0 1 0
1086 2 -2.5302231790990213e+00 6.2571441843824145e+00 1.0532090316669697e+01 0 0 0
806 2 1.0778972192349734e+00 7.0159603899860326e+00 1.2189812281523929e+01 7 0 5
767 2 1.4061729715751806e+01 8.6292956374874006e+00 8.1810793309692931e-01 -2 0 1
319 1 9.6009904050408661e+00 9.1311212425235695e+00 7.1418807402351261e+00 0 0 1
79 1 3.5590498362948653e+00 3.5703318410588567e+00 4.1696106776398159e+00 -1 0 0
566 2 1.5989763304854405e+01 4.3465128276604057e+00 4.0886517439155465e+00 -2 0 -2
221 2 -2.8681979419281043e+00 6.7413716153265080e+00 1.6347271218365240e+01 3 0 0
198 2 2.9761145103619642e+00 5.8645531758282630e+00 1.0733540943140746e+01 -2 0 -2
966 2 -1.5489973780952724e+00 5.5470221351482580e+00 1.8552091713488018e+01 1 0 3
961 1 2.0305672309204192e+00 9.8204938033243998e+00 9.0629094258008234e+00 2 0 1
842 2 2.8843191808585957e+00 6.5265978500242099e+00 2.5707266134147955e+00 1 0 1
913 1 9.3195012878905139e+00 6.1715661131921555e+00 3.2111565293027353e+00 -2 0 1
700 1 8.8780136206909201e+00 8.0834199950834122e+00 1.4922330429989621e+01 3 0 2
997 1 1.0476665970699255e+01 6.6060091609183056e+00 9.7533108782286799e+00 1 0 2
557 2 8.9732686875623795e+00 3.3257242210714661e+00 1.0189666020520927e+00 1 0 7
878 2 4.6371841667971143e+00 5.5195615806165375e+00 1.4206811893730624e+01 0 0 2
252 2 9.0395711586780934e+00 1.4879374694750052e+00 1.2332962845273988e+01 2 0 4
524 2 1.0294511553341746e+01 5.3571288196109261e+00 8.5691196188971421e+00 0 0 1
86 2 8.5419753879853779e+00 9.7013323804134135e+00 8.4504912064965261e+00 3 0 4
417 2 -2.8048603602252662e+00 2.2486068790687206e+00 9.9466810369975729e+00 0 0 2
805 1 1.5481989514670005e+00 7.0837901587149545e+00 1.3055411325145034e+01 7 0 5
172 1 7.7025173855987070e+00 3.4614573401700044e-02 3.4468359160844004e+00 0 0 3
892 1 -1.6396288359767746e+00 -3.7646219198026309e-01 1.1534796611373210e+01 -1 0 -1
174 2 8.2655677904372808e+00 5.7632786169127592e-01 4.0720843352142504e+00 0 0 3
656 2 1.3857053575692273e+01 6.5251493932653952e+00 7.8933791795312453e+00 2 0 2
306 2 -6.1356852770619863e-01 7.6324230243038667e+00 1.9758741699566298e+00 2 0 1
723 2 3.6803409436520993e+00 1.6830740290409185e+00 7.1492701982530704e+00 4 0 4
934 1 3.1692428908709296e+00 8.3896924769028232e+00 5.3008263725249209e+00 1 0 1
958 1 1.0829595488193812e+01 9.6664959648515012e+00 1.7604012436663038e-02 4 0 4
130 1 1.1157307748707320e+01 -6.1636645385103683e-01 1.3532151972255672e+01 -3 0 -2
522 2 -3.2892638239514693e+00 9.2865089325424428e+00 9.2418741624619880e+00 0 0 -1
122 2 7.1954440163825089e+00 7.0714298563185736e+00 9.9854021190269926e-01 1 0 3
762 2 2.8010256887288838e+00 5.2144955404319671e+00 6.8226631883004387e+00 3 0 5
495 2 1.4085923759733197e+00 9.4421571559326578e-01 1.6897595585139715e+01 0 0 1
515 2 -7.1398410195516027e-01 1.3630041124180781e+00 4.0247528683082257e+00 2 0 2
787 1 1.2943306684542696e+01 3.2994177138705512e+00 8.8595254976120223e+00 2 0 -1
484 1 -5.7689746022431976e-01 1.0500114986886318e+01 1.7803961867602489e+00 1 0 4
148 1 1.0540637898931774e+01 3.7344638736959821e+00 3.6690957375245397e+00 1 0 -2
101 2 8.7766605233729855e-01 2.9611215587161857e+00 1.8721632055377892e+01 3 0 1
722 2 3.0930573387907674e+00 1.6486485028088174e+00 5.7266773457300113e+00 4 0 4
243 2 1.0983326441994567e+01 8.3134822765850167e+00 1.7686990652433813e+01 1 0 0
230 2 8.2916139876023607e+00 2.4243978828677326e+00 1.7099419601104866e+01 1 0 2
188 2 5.8159856818711120e-01 9.7276134432459163e+00 8.1827899856261901e+00 1 0 2
104 2 -1.0996980417314415e+00 8.2412904500671722e+00 1.5188804138164663e+01 1 0 2
121 1 7.4606780503001353e+00 7.7957976897014944e+00 3.6662618122536417e-01 1 0 3
567 2 1.6459572915513164e+01 5.3594695287474838e+00 2.8443865160806556e+00 -2 0 -2
80 2 3.6844422831782779e+00 2.6222988960206512e+00 4.1573733141574456e+00 -1 0 0
691 1 5.9475263471241391e+00 5.4258373057871863e+00 9.9864495562211388e+00 -1 0 1
204 2 -9.3283865133233013e-01 9.6056171314210381e+00 6.0236978190371611e+00 0 0 5
289 1 9.6806944378573263e+00 6.6166431286804333e+00 5.9906991685753459e+00 1 0 1
189 2 -8.2782368190237721e-01 8.8868879367154854e+00 7.9432238050857009e+00 1 0 2
56 2 6.9831699547104753e-01 6.0155897840737005e+00 8.3351471065027933e+00 2 0 1
177 2 3.3426160976072721e+00 9.6247670388186553e+00 1.7659837332073831e+01 -1 0 1
556 1 8.5035257665019905e+00 3.9954167282786459e+00 5.2688307389107225e-01 1 0 7
96 2 1.3615915901319813e+00 7.1728301043046017e+00 1.7983414535141879e+01 5 0 3
569 2 6.0734983618870784e+00 9.1503082748960711e+00 4.1326365485704857e+00 0 0 -1
407 2 4.0232304256259965e+00 9.4923115325298397e+00 1.0523977499718586e+00 -1 0 3
291 2 9.5814065286639369e+00 6.5193226759865439e+00 5.0302335801526370e+00 1 0 1
841 1 2.4702382632898221e+00 7.3972433682641174e+00 2.7841431675768575e+00 1 0 1
721 1 2.8451909585271071e+00 1.5276414478140974e+00 6.6615298363517104e+00 4 0 4
669 2 1.0811993809076174e+01 3.6347595794905621e+00 1.3856884350065229e+01 -1 0 2
819 2 9.5440721718795771e+00 4.7285443411779156e+00 1.5447649883726474e+01 -1 0 -1
994 1 1.3024558736130698e+01 -8.2796834672670339e-01 9.0486075469037370e+00 2 0 2
479 2 8.5833765980672752e+00 2.1522754548632750e+00 5.6381448567093413e+00 4 0 3
78 2 7.4752276878105759e+00 7.4496245571247304e+00 1.2012899228674069e+01 2 0 3
685 1 1.2648225652281733e+01 3.4726178703571273e+00 1.7373720371020440e+00 -3 0 1
1005 2 -3.4589479521468824e-01 2.7334586083623216e+00 1.2604969007920749e+01 4 0 0
592 1 1.6105471053039455e+00 4.4933685208095806e+00 1.0613775587391693e+01 -3 0 -1
51 2 -1.0272696740480214e-01 6.8179960743768371e+00 4.6430461944831203e+00 2 0 3
604 1 1.2285260604064455e+01 4.2779373116846040e+00 5.6447173250377993e+00 -3 0 3
726 2 6.8394722598926494e+00 3.1741358682718221e+00 1.2188003793667896e+01 2 0 4
858 2 1.1462370397177946e+01 4.6736841121133166e+00 1.6958750963595506e+01 -4 0 3
268 1 1.6666341084991917e+01 6.4798597446127175e+00 1.2496211595146036e+00 2 0 2
683 2 3.6165579749191954e+00 -8.4928310284680952e-02 1.3475180455719903e+01 3 0 -1
431 2 5.5887015894355416e+00 4.1928180549575362e+00 1.6523033874620531e+01 0 0 1
108 2 1.2023674022547574e+01 7.1840076771578012e+00 5.4835010371612904e+00 0 0 1
914 2 9.7323096382016487e+00 6.8522546837875211e+00 2.5444423762083677e+00 -2 0 1
976 1 -3.3533098024604060e+00 6.2633779917419155e+00 1.4805833011067248e+01 1 0 2
1115 2 1.3295266156114856e+01 8.0907648712318085e+00 5.3925674378847956e+00 0 1 1
287 2 3.9852534265228616e+00 3.3671507600526529e-01 3.7186481176186055e+00 -3 0 2
737 2 1.2908300850668532e+01 1.4030048751549478e+00 6.5830365453993060e+00 -2 0 1
967 1 7.4503804224854795e+00 -9.8832926947942812e-01 1.1587431636105551e+01 0 0 4
909 2 1.1203968867317950e+01 5.0414293340896998e-01 1.0535549571358180e+01 3 0 5
374 2 9.5677855748790019e+00 2.8814036208488343e+00 9.9813747088760998e+00 1 0 1
792 2 1.0588695904434511e+00 6.3091148981382608e+00 6.3990558486365865e+00 1 0 3
874 1 7.2306722100658796e+00 3.1835961115272440e+00 5.8383971107867039e+00 -2 0 5
46 1 -4.5201770623465354e-01 1.5349338773580734e+00 1.3835959323273183e+01 0 0 4
81 2 3.3939221019485410e+00 3.7767733530719649e+00 5.0655930926665400e+00 -1 0 0
1026 2 7.7651759398428446e+00 -1.1199188484596849e+00 3.1794177675361135e-01 0 0 1
863 2 1.0678792478953975e+01 8.2527475041010678e+00 9.3498237015486729e-01 -4 0 3
516 2 1.6502213400813982e+01 4.8122084212472815e-01 4.7430408532699531e+00 1 0 2
880 1 3.4622803917035263e+00 4.8572009541797474e+00 1.9381292753407429e+00 1 0 3
413 2 -8.1093906709858565e-01 3.3553261256444156e+00 1.6194372239511175e+01 0 0 -2
100 1 3.1521574933677332e-01 2.2508292651358435e+00 1.8392822971139672e+01 3 0 1
605 2 1.2002136404295888e+01 3.4676217710185195e+00 6.0902056852127089e+00 -3 0 3
599 2 3.3882311213596195e-01 2.0796899966686242e+00 5.8609492484548147e+00 -1 0 4
687 2 1.2602222751036273e+01 4.4351883164516925e+00 2.0421954868309879e+00 -3 0 1
67 1 -2.0516869373291415e+00 5.7374537809821993e+00 1.2473202441700655e+01 1 0 3
959 2 4.9807668466636503e+00 9.4456399913140210e+00 1.8780584464835282e+01 4 0 2
520 1 1.4228097056107138e+01 8.8754846360564823e+00 8.8297935267258332e+00 -1 0 -1
667 1 1.1508135550628058e+01 3.0395642742632569e+00 1.3482124635251509e+01 -1 0 2
84 2 5.9700533633945208e+00 -3.3729474338702359e-01 1.6335915356846368e+01 0 0 -2
594 2 1.8566767956665946e+00 3.6572055834555064e+00 1.0197706133558190e+01 -3 0 -1
349 1 3.5364874279557768e+00 5.5666189402571984e+00 1.8334253625352918e+01 0 0 1
69 2 -2.8972215568368909e+00 5.1845407437693121e+00 1.2419535288445768e+01 1 0 3
833 2 3.9861095131896804e+00 3.1380825871988449e-01 6.5671796525359150e-01 0 0 4
1006 1 8.1376768142452143e+00 3.6629211276061442e+00 1.8135331191337837e+01 -1 0 0
473 2 1.1488169553920194e+01 2.4881637163459174e+00 1.6416465338815271e+01 1 0 4
494 2 1.8004831626518554e+00 8.7843343314198652e-01 1.5368406653725959e+01 0 0 1
273 2 7.2035894765296824e+00 1.0264076467736505e+01 2.1622132247386658e+00 -2 0 1
840 2 4.9801559728176477e+00 4.1356126049340070e-01 9.2870114576430502e+00 1 0 -3
988 1 1.1029265840075974e+01 6.5673762108829283e+00 1.4004481442720770e+01 4 0 2
649 1 -1.7590192382130998e+00 -2.8319141615087784e-01 7.3464162695352391e+00 0 0 -3
250 1 8.9874661299398824e+00 6.7763548580960431e-01 1.2907954562822422e+01 2 0 4
53 2 5.5478298227258440e+00 1.8064773628374446e+00 7.6766773457231308e+00 1 0 4
598 1 3.3164869933242436e-01 2.8127037136715716e+00 6.5055201538092415e+00 -1 0 4
95 2 1.0802574825317146e+00 6.8630743789825974e+00 1.6387115915234034e+01 5 0 3
1595 2 7.4094144232281600e+00 4.7639353996209044e+00 1.4357313466627129e+01 0 0 0
657 2 1.3307688827998529e+01 5.1411667331808637e+00 8.3066723169630876e+00 1 0 2
432 2 5.1480989903212695e+00 5.1584908177204678e+00 1.7668470531508049e+01 0 0 1
381 2 5.0419643692379719e+00 3.8574521755330373e+00 9.1972179136822465e+00 2 0 3
85 1 7.8593718036318325e+00 9.7431950434433006e+00 9.2035410851850781e+00 3 0 4
149 2 1.0197349785273424e+01 2.8377461234968111e+00 3.7458543328133609e+00 1 0 -2
809 2 9.2947339761026964e+00 2.6886459453246756e+00 7.8129529504576274e+00 0 0 1
105 2 -6.4758967169010084e-01 9.7205461265450168e+00 1.5406698108450975e+01 1 0 2
963 2 2.7003223180367537e+00 9.1086777930889653e+00 8.9136408858944982e+00 2 0 1
317 2 1.5240045173645735e+01 8.3827153967570194e+00 6.6124865553709231e+00 0 0 -2
470 2 1.2881252974167859e+01 -3.4377328123093875e-01 1.3267326731673949e+01 -2 0 1
183 2 9.6871477637522645e+00 1.0000017313187312e+01 1.8040686637546884e+01 1 0 5
202 1 -1.1415182294594068e+00 9.7506976688460281e+00 5.1014797914047998e+00 0 0 5
701 2 8.1388888576848117e+00 7.6275985368242889e+00 1.5412824356309933e+01 3 0 2
588 2 -1.4149257517230986e+00 1.0490142567454251e+01 1.0352855497897751e+01 -2 0 2
375 2 1.0219401841075360e+01 3.5069078752447691e+00 1.1218558813160104e+01 1 0 1
70 1 1.2585476271153553e+01 1.2691308779212975e+00 3.5587648568267594e+00 3 0 3
597 2 5.9068072696779161e+00 6.4239927345819057e+00 6.2951210069502421e+00 1 0 4
977 2 -2.7198736669143728e+00 6.0558323762924804e+00 1.4089459501015726e+01 1 0 2
90 2 7.6894493728240336e+00 6.3771965308672840e+00 2.8982772490193565e+00 -3 0 0
585 2 1.2235549765272991e+01 4.5273161067250385e+00 1.1578674333261302e+01 0 0 2
724 1 6.9301370568752469e+00 3.1140401868690359e+00 1.1231716028413921e+01 2 0 4
606 2 1.2507055554261296e+01 4.9255923404094872e+00 6.3658706125195099e+00 -3 0 3
514 1 -8.5426350237374016e-01 7.8189675789318569e-01 4.7883098513924649e+00 2 0 2
480 2 9.6898628530495472e+00 1.0682399068835724e+00 5.7464484942257350e+00 4 0 3
1085 2 -3.3888937790605254e+00 7.4601507389679469e+00 9.9194092890802033e+00 0 0 -1
258 2 -2.1264131055861854e-01 1.7828303225903896e+00 1.2242286972244112e+00 3 0 3
106 1 1.2512740411637868e+01 7.7028032285427663e+00 4.9033093460997383e+00 0 0 1
827 2 1.2065537265785824e+01 2.1330376398306425e+00 1.2025324437589054e+01 0 0 3
31 1 4.0307518814076726e+00 -5.9184068063415918e-01 1.7084249198065983e+01 1 0 -1
936 2 3.9755771455193702e+00 7.8542143307617138e+00 5.5863127222462126e+00 1 0 1
907 1 1.0600082826718452e+01 -7.7697414134053844e-02 9.9749543274597894e+00 3 0 5
582 2 1.4505261642611970e+01 9.0231339682799216e-01 1.1705217253211810e+00 -2 0 3
999 2 1.1202086587336332e+01 7.2137370520275361e+00 9.4844288808557362e+00 1 0 2
670 1 7.8189518613478262e+00 7.4444940380861713e+00 1.0153206329403261e+01 2 0 4
915 2 9.8564545416307698e+00 5.3489181907123156e+00 3.0969648328684158e+00 -2 0 1
478 1 9.2067275012296506e+00 1.5894870995826325e+00 5.0670578133627382e+00 4 0 3
340 1 -4.6832716832868453e+00 5.6684747792362211e+00 1.8802811757126168e+01 1 0 -1
300 2 -3.9450134616579051e+00 1.5025016565021923e+00 1.3215087443666421e+01 -1 0 1