LAMMPS data file via write_data, version 15 Apr 2020, timestep = 500000

1008 atoms
2 atom types

1.0259408254970559e-01 1.8380805917441037e+01 xlo xhi
1.4184015278262585e-01 2.2275359847208911e+01 ylo yhi
2.0541496021963646e-01 1.9184767039768758e+01 zlo zhi
-5.5414121336033267e-02 -6.7715831229326779e+00 -9.3080326315874845e-03 xy xz yz

Masses

1 16
2 2

Atoms # atomic

1 1 1.5750004497299885e+00 4.5540370667652024e+00 2.5824844216948137e+00 0 0 0
2 2 2.2811133732287638e+00 5.0542005395736931e+00 3.0606010168929885e+00 0 0 0
3 2 1.2343384987125419e+00 3.8359724013306242e+00 3.1755715155293363e+00 0 0 0
4 1 3.0663448646914522e+00 6.1252402226990634e+00 3.9507353631879156e+00 0 0 0
5 2 3.8746368293859610e+00 5.7438674122021132e+00 4.2181968727533343e+00 0 0 0
6 2 3.3309656338880256e+00 6.8856655061440764e+00 3.4089346141319723e+00 0 0 0
7 1 8.6505702191010003e-02 5.9869186863554145e+00 9.9389341214554483e-01 0 0 0
9 2 6.5938690628603180e-01 5.4093376940228728e+00 1.5602365126740136e+00 0 0 0
10 1 7.7706774421634939e-01 3.0866904275873508e+00 4.7935619625867076e+00 0 0 0
11 2 9.6959510385254455e-01 3.8418560055785860e+00 5.4093342117806724e+00 0 0 0
12 2 -1.2529366600739578e-01 2.8018368810642369e+00 5.0675426878548766e+00 0 0 0
14 2 2.0294681889724222e+00 3.6308639242788656e+00 1.2106615964436693e+00 0 0 0
16 1 2.9541402805270121e+00 1.1953188387875913e+00 2.6025278416262814e+00 0 0 0
18 2 2.0610089131245237e+00 1.3910688265589335e+00 2.8628405751982613e+00 0 0 0
19 1 1.7232629958478973e-01 1.0306131885977421e+00 2.8083044442644778e+00 0 0 0
20 2 -5.0210581776371355e-01 1.7302180468384509e+00 2.6802571785217624e+00 0 0 0
24 2 -9.3015854694155053e-01 9.3331446997813861e-01 6.6175035821247308e+00 0 0 0
28 1 1.0715396806750062e+00 2.3466279674879269e+00 8.5804219427919008e+00 0 0 0
30 2 7.4505423616407196e-01 1.6405839134945355e+00 8.0065662749917372e+00 0 0 0
31 1 4.9777666716993263e-01 6.6172947708767662e+00 4.7728743529521296e+00 0 0 0
32 2 1.4698763040385034e+00 6.3806929800564589e+00 4.6035954741241669e+00 0 0 0
33 2 4.2506582623978573e-01 7.3617558520784128e+00 4.0929611675573287e+00 0 0 0
36 2 -4.1898870093879070e-01 7.1740444381936790e+00 8.8179041211811438e+00 0 0 0
37 1 -1.5601849633776053e+00 4.5380782791748926e+00 7.2795290894738267e+00 0 0 0
38 2 -6.2331787132659611e-01 4.7098628483753346e+00 7.1245614251175473e+00 0 0 0
39 2 -1.5930982711143753e+00 4.0851639845741339e+00 8.1352856659214599e+00 0 0 0
40 1 1.0867266769074244e+00 4.7624673076456663e+00 6.9956739285541714e+00 0 0 0
41 2 1.7086690746972675e+00 5.5031052532279059e+00 6.9707997355453690e+00 0 0 0
42 2 1.3135691461401566e+00 4.1830714236829198e+00 7.7538239754163962e+00 0 0 0
43 1 4.1981017076035441e+00 3.5661178282895074e+00 7.3842062030811961e+00 0 0 0
44 2 4.4657857186182497e+00 4.3018479580910229e+00 6.8117829322000887e+00 0 0 0
45 2 3.6564622748423425e+00 3.0960862031753216e+00 6.7842102975733658e+00 0 0 0
46 1 2.9251749022126821e+00 1.6894685557504259e+00 5.9755772554063551e+00 0 0 0
48 2 2.1469630278908891e+00 1.9727975044363451e+00 5.4403120303264334e+00 0 0 0
49 1 5.6745368334264210e+00 1.8747495200959154e+00 8.7906316570615495e+00 0 0 0
50 2 5.3058656038907444e+00 2.5425416663921769e+00 8.1923192826014386e+00 0 0 0
52 1 4.9472514327370032e+00 4.6771198570005028e+00 4.9406641023420201e+00 0 0 0
53 2 5.8411415465450167e+00 5.0646048205497873e+00 5.1020541374548403e+00 0 0 0
54 2 5.0703572475217822e+00 4.1279470027112399e+00 4.1437293621469369e+00 0 0 0
57 2 3.8964519912601472e+00 4.2993936766154270e+00 8.7469428096134685e+00 0 0 0
58 1 2.8944161080832091e+00 6.8109555171861764e+00 7.0692159869311499e+00 0 0 0
59 2 3.8639115763561733e+00 6.6706132679037120e+00 6.8930978634254796e+00 0 0 0
60 2 2.7990725526623863e+00 7.0164500162065506e+00 8.0459797495821910e+00 0 0 0
61 1 5.5896612972111663e+00 6.7837251104909511e+00 6.7785999689341745e+00 0 0 0
62 2 5.8516945452222036e+00 7.4595514073427269e+00 7.4758535562889783e+00 0 0 0
63 2 6.3119489685930485e+00 6.0249590999098812e+00 6.9555632178150688e+00 0 0 0
64 1 6.3930796184436529e+00 7.0092083447215252e+00 2.1805024413225360e+00 0 0 0
65 2 7.0687867002633222e+00 6.5698436867702048e+00 2.7865781902962996e+00 0 0 0
66 2 5.8693130593292597e+00 7.5218914334091265e+00 2.7823472590283904e+00 0 0 0
67 1 7.6643452028614503e+00 5.5540794683028931e+00 3.8286341700347077e+00 0 0 0
68 2 7.9471035570566189e+00 4.7691109101577700e+00 3.3352872408651102e+00 0 0 0
69 2 8.4928841822466055e+00 5.8854542683544553e+00 4.3308949140384589e+00 0 0 0
70 1 4.6310674784574557e+00 5.1904401374116924e+00 1.2523519912448811e+00 0 0 0
71 2 5.1249514435861103e+00 5.8202252995078227e+00 1.8000264818748957e+00 0 0 0
118 1 8.5464055925711531e+00 7.0427214367734452e+00 9.4820861429081571e+00 0 0 0
73 1 5.2220629162903798e+00 8.5225557586586576e-01 4.8289851178835761e+00 0 0 0
75 2 4.3513149795749273e+00 1.2592375739286021e+00 4.9932306296647502e+00 0 0 0
79 1 7.9268123586126578e+00 2.9936983258688996e+00 2.1338454890287810e+00 0 0 0
80 2 7.7681902023765064e+00 3.3935443757227173e+00 1.2515268203407568e+00 0 0 0
81 2 7.0442119096846056e+00 2.7230297448880640e+00 2.3322953132983986e+00 0 0 0
82 1 5.0267366591770033e+00 3.1434730972035396e+00 2.6429808715260159e+00 0 0 0
83 2 4.7002992653077413e+00 3.9082950176776436e+00 2.0951756599197369e+00 0 0 0
84 2 4.4012903328961315e+00 2.4112957523676353e+00 2.4997095043934476e+00 0 0 0
85 1 1.0528658966219000e+01 4.5192432052794329e+00 2.8436742811298923e+00 0 0 0
86 2 1.1170554711565531e+01 5.0127352506600573e+00 3.4505385483918327e+00 0 0 0
87 2 1.0016638393545216e+01 3.8899376282590863e+00 3.4159016634210664e+00 0 0 0
88 1 1.2207940516687062e+01 6.1680985218204167e+00 4.3991828491475236e+00 0 0 0
89 2 1.2827266644472994e+01 5.4415873241126942e+00 4.7190843505051800e+00 0 0 0
90 2 1.2616402222550199e+01 6.8233193410822990e+00 3.7952453145373624e+00 0 0 0
91 1 9.1513123944338819e+00 6.3376554067365030e+00 1.0207905011862803e+00 0 0 0
113 2 1.0733362765237862e+01 1.9218345946182376e+00 9.4752946477996840e+00 0 0 0
93 2 9.6829991215635918e+00 5.7536391711594810e+00 1.5176498932797773e+00 0 0 0
94 1 9.8301379618070435e+00 2.9870138921455527e+00 4.9576065402782854e+00 0 0 0
95 2 1.0127357725506073e+01 3.6866490082759351e+00 5.6795457285568007e+00 0 0 0
96 2 8.9461987440705713e+00 2.7485007505520200e+00 5.2674222053640891e+00 0 0 0
98 2 1.1096524110649330e+01 3.6468971743429734e+00 1.2207514429966546e+00 0 0 0
100 1 1.2197342109333972e+01 6.9151210001160557e-01 2.6615840741322216e+00 0 0 0
102 2 1.1232531175653646e+01 9.3342255893300929e-01 2.5979974452524877e+00 0 0 0
103 1 9.4859017625779618e+00 7.8794048612970236e-01 2.4989351541354532e+00 0 0 0
104 2 8.9195574383042882e+00 1.6521995641004015e+00 2.4722242442366515e+00 0 0 0
92 2 8.3759295080111649e+00 5.8681737335494057e+00 7.1894019333103520e-01 0 0 0
771 2 8.6920904459236059e+00 1.0314822455606087e+01 9.4438252379079799e+00 0 0 0
108 2 8.4639944101555784e+00 1.4637115950155273e+00 6.5190801979861126e+00 0 0 0
109 1 7.2207617613943009e+00 2.2674791153632170e+00 5.6541921924244090e+00 0 0 0
110 2 6.4704525986748900e+00 1.6641507842074985e+00 5.4285742444774829e+00 0 0 0
111 2 6.9472830576097202e+00 3.0583588359398357e+00 6.1429753396666769e+00 0 0 0
112 1 1.0182358486596081e+01 2.4259217229817178e+00 8.8594131685869524e+00 0 0 0
262 1 1.0059591251304980e+01 1.0475224408864005e+01 4.8582039561228134e+00 0 0 0
114 2 9.9931688124590199e+00 1.7901717121524103e+00 8.1010901581876098e+00 0 0 0
115 1 9.7197903061234925e+00 6.8668511489092587e+00 5.1476204690996319e+00 0 0 0
116 2 1.0662992009479265e+01 6.6083882331115049e+00 4.9030855498690586e+00 0 0 0
117 2 9.4950342912597598e+00 7.5991051573115715e+00 4.5681452366974336e+00 0 0 0
120 2 8.5288504649846040e+00 7.4439062917103698e+00 8.6389309489346804e+00 0 0 0
121 1 7.3161490416632109e+00 4.8211943491163911e+00 7.2074593832777865e+00 0 0 0
122 2 8.2537184146404545e+00 4.9646542713984836e+00 7.2074436920937055e+00 0 0 0
123 2 7.1817893634081198e+00 4.4062732766433506e+00 8.1153042097775128e+00 0 0 0
124 1 1.0031107507004842e+01 4.7417189421441570e+00 7.1552142171936257e+00 0 0 0
125 2 1.0589032374133323e+01 5.5221138276774777e+00 7.3485314676671596e+00 0 0 0
126 2 9.8962622694180347e+00 4.3173990980298669e+00 8.0600655829596128e+00 0 0 0
127 1 1.3242964758326009e+01 3.2581798817408849e+00 7.5032271270332247e+00 0 0 0
128 2 1.3630578382283575e+01 3.8129678297058378e+00 6.7843275379787693e+00 0 0 0
129 2 1.2439945211791789e+01 2.9460164701094667e+00 7.0295185183112086e+00 0 0 0
130 1 1.1969996672405358e+01 1.5570554452006691e+00 6.1519907304966610e+00 0 0 0
131 2 1.1840153810344033e+01 5.6776639297109566e-01 6.1463770467563865e+00 0 0 0
132 2 1.1086928886352693e+01 1.8214219706750490e+00 5.8905421657160533e+00 0 0 0
134 2 1.4498376353122422e+01 2.2211148128657121e+00 8.3091789338238247e+00 0 0 0
136 1 1.3998011462066350e+01 4.4399423853267885e+00 5.1546085712667047e+00 0 0 0
137 2 1.4936498574333285e+01 4.7740101617012698e+00 5.1080888452535662e+00 0 0 0
138 2 1.3848904753093029e+01 3.8196199885205484e+00 4.4076134805863560e+00 0 0 0
141 2 1.3022757851301046e+01 4.1189226351289854e+00 9.0040625716124705e+00 0 0 0
142 1 1.1711680643662431e+01 6.8477656541282048e+00 7.6458966521429677e+00 0 0 0
143 2 1.2584369476536120e+01 6.5395652675814882e+00 7.3417842712669286e+00 0 0 0
144 2 1.1889093512975354e+01 7.1210315199143555e+00 8.5695341129871494e+00 0 0 0
145 1 1.4459924569297179e+01 6.4765382706808028e+00 7.3259620628228035e+00 0 0 0
148 1 1.5007397494005387e+01 6.8703614359603256e+00 2.7554309759316089e+00 0 0 0
149 2 1.5611157082846816e+01 6.2474937989205870e+00 3.2082088371552016e+00 0 0 0
150 2 1.4917206057074061e+01 7.6066546995715205e+00 3.4229390708425860e+00 0 0 0
153 2 -8.4421122365170997e-01 5.6984867331533593e+00 4.2918943208889759e+00 0 0 0
154 1 1.3544120567301301e+01 5.0674604018056604e+00 1.2904896837567381e+00 0 0 0
155 2 1.3990590690228164e+01 5.7918328221832693e+00 1.7548553078993121e+00 0 0 0
560 2 6.1759671513570744e+00 4.8477546383080750e+00 3.7657835334546536e-01 0 0 0
159 2 1.3573276071449097e+01 1.2396169358842002e+00 5.3907550346982349e+00 0 0 0
35 2 -1.7036790715899930e+00 6.7526428916934194e+00 9.6365813619428806e+00 0 0 0
164 2 1.6446485231817761e+01 3.5635537925625669e+00 1.5509887845883206e+00 0 0 0
165 2 1.5648145032739384e+01 2.7280751737543105e+00 2.5300394409370410e+00 0 0 0
166 1 1.3809967470942677e+01 2.9507708142906943e+00 2.8416338667677112e+00 0 0 0
167 2 1.3565431959331304e+01 3.7127589636155602e+00 2.2840597075564908e+00 0 0 0
168 2 1.3249414012138860e+01 2.1982807392316199e+00 2.6795495770912368e+00 0 0 0
180 2 -1.7065209041037321e-01 1.0457206876678308e+01 5.2484198079737503e+00 0 0 0
184 1 3.2814428150959136e+00 8.1373396543668832e+00 2.3553260054193204e+00 0 0 0
185 2 2.8883406453501905e+00 7.9057556619301828e+00 1.4775964967580089e+00 0 0 0
186 2 2.5182201701781146e+00 8.6136711444542389e+00 2.7248379822421818e+00 0 0 0
187 1 4.2403333611295324e-01 8.4537982764949131e+00 2.6720890098158678e+00 0 0 0
188 2 -1.4821452963270032e-01 9.1824609315785466e+00 2.8087714904860275e+00 0 0 0
189 2 -1.3052698711250699e-02 7.7836003982410134e+00 2.1556836556540206e+00 0 0 0
190 1 -1.2616588725229949e-01 7.7006840048378100e+00 7.2466966753494519e+00 0 0 0
191 2 4.6304069463733555e-02 7.1789582072666560e+00 6.4319815696978946e+00 0 0 0
192 2 -5.9620020761213466e-01 8.5242186442716381e+00 7.0147369518566141e+00 0 0 0
196 1 1.3479772592593808e+00 9.5132777285652601e+00 8.9430396827201566e+00 0 0 0
198 2 1.0161594334227457e+00 8.7960003021680659e+00 8.3804966758906669e+00 0 0 0
213 2 3.7463668659580067e+00 1.0099239154247762e+01 6.8756392659232413e+00 0 0 0
214 1 2.9737254110343745e+00 9.0536683881608297e+00 5.6679134881500177e+00 0 0 0
215 2 2.6627766069576140e+00 8.2274061379471259e+00 6.0958116548664680e+00 0 0 0
216 2 2.1282301379775665e+00 9.4809226914611724e+00 5.4170303001748650e+00 0 0 0
217 1 5.6212850994625327e+00 8.6524828317960125e+00 8.6686460752847232e+00 0 0 0
218 2 5.3368421309401999e+00 9.3897511417119972e+00 8.1236819765026311e+00 0 0 0
241 1 5.5001218360022488e+00 8.2851706039824773e+00 4.5271906703098361e+00 0 0 0
242 2 5.6555801807732298e+00 7.7258399003220664e+00 5.3772041232133923e+00 0 0 0
243 2 4.5763043141972730e+00 8.6289298484502215e+00 4.6770399480011191e+00 0 0 0
245 2 6.8663037686728803e+00 7.8694960960629770e+00 8.1394994984314339e-01 0 0 0
247 1 7.7991533017676904e+00 1.0547125721097959e+01 2.2914443551225498e+00 0 0 0
249 2 6.9139142145441657e+00 1.0199327780153070e+01 2.4826099723867761e+00 0 0 0
250 1 5.0838071153288160e+00 1.0274098213874820e+01 2.5999309242695436e+00 0 0 0
252 2 4.3982909396797316e+00 9.5971677057071343e+00 2.4286491542451967e+00 0 0 0
264 2 9.1696657745065835e+00 1.0073356493788559e+01 4.9813278092067721e+00 0 0 0
331 1 1.6810389902897505e+01 1.0279507854620052e+01 2.2964656176605240e+00 0 0 0
268 1 1.2287769242398923e+01 8.2082109441347804e+00 2.5540689557668781e+00 0 0 0
269 2 1.2129361529302768e+01 7.8072737795895497e+00 1.7044687230352811e+00 0 0 0
270 2 1.1325171797686583e+01 8.5426389066612956e+00 2.6834797076600436e+00 0 0 0
271 1 9.7243080557523225e+00 8.5322717212680956e+00 2.7715687637572826e+00 0 0 0
272 2 9.0580644619169242e+00 9.2349212380707559e+00 2.6292222850039613e+00 0 0 0
273 2 9.4393735774450160e+00 7.7854937260415094e+00 2.1237566423297247e+00 0 0 0
274 1 8.9896061783088772e+00 8.2769989112841920e+00 7.2161995859976562e+00 0 0 0
275 2 9.3659995470256767e+00 7.6351233594945267e+00 6.5665102903678889e+00 0 0 0
276 2 8.3686992877878446e+00 8.8053102008351303e+00 6.6714012937049976e+00 0 0 0
277 1 7.4692525973112325e+00 9.7938270469501418e+00 5.5133469765874281e+00 0 0 0
278 2 6.7048611274587353e+00 9.2778372823239241e+00 5.1876291234245802e+00 0 0 0
279 2 7.1489591086469435e+00 1.0595047078776297e+01 5.9215168833168423e+00 0 0 0
280 1 1.0543929770998702e+01 9.8241496569813318e+00 8.7914217125264322e+00 0 0 0
282 2 1.0256684633837146e+01 9.1703184234478368e+00 8.1167743811126432e+00 0 0 0
163 1 1.6585516305525800e+01 2.9949342215772110e+00 2.3913987772909748e+00 0 0 0
297 2 1.2956468077705413e+01 1.0105983239003942e+01 6.9766966110625912e+00 0 0 0
298 1 1.1958711491036320e+01 9.0519792551422960e+00 5.8741428423443747e+00 0 0 0
299 2 1.1668086360199080e+01 8.2495992771623925e+00 6.4118237487612273e+00 0 0 0
300 2 1.1223009746899491e+01 9.5467239339001129e+00 5.4373810018131215e+00 0 0 0
302 2 1.4391750809093924e+01 9.5537959059837263e+00 8.3872140478741866e+00 0 0 0
21 2 1.0024953294529160e-01 4.8586626775727820e-01 1.9864665206783145e+00 0 0 0
325 1 1.4522600573544976e+01 8.3459821669706447e+00 5.1988087867133128e+00 0 0 0
326 2 1.4551640354728850e+01 7.4755408164097057e+00 5.6615055278945219e+00 0 0 0
327 2 1.3528452832226153e+01 8.6047909283583444e+00 5.2909884623680092e+00 0 0 0
329 2 1.5319893711652313e+01 7.6392050550638855e+00 1.1795937588399952e+00 0 0 0
47 2 2.7253003563125882e+00 7.9843665030188127e-01 6.3963389305454816e+00 0 0 0
333 2 1.5876694229505654e+01 1.0172829640890843e+01 2.4164332986721688e+00 0 0 0
334 1 1.4050647101534869e+01 1.0651001597418540e+01 2.5775747383734333e+00 0 0 0
336 2 1.3334167168229120e+01 9.9722709231851869e+00 2.5564502072136146e+00 0 0 0
147 2 1.5237657781991839e+01 5.8859644708802543e+00 7.3981841334422320e+00 0 0 0
97 1 1.1137631057022629e+01 3.2909611012286653e+00 2.9096119180224223e-01 0 0 0
17 2 2.9205737187644178e+00 8.1279961960394576e-01 1.7069342691650686e+00 0 0 0
157 1 1.4236522287519390e+01 7.0194532337287996e-01 4.8728526270033941e+00 0 0 0
194 2 1.5857415417466063e+01 9.3258461049091075e+00 5.7251161327642874e+00 0 0 0
51 2 6.4056323069046561e+00 2.1998672320921195e+00 9.3115281657394071e+00 0 0 0
156 2 1.2786810970902760e+01 5.4635666149274389e+00 8.8358347308771923e-01 0 0 0
13 1 2.0477680815902857e+00 3.2445523026762326e+00 2.8394827380739451e-01 0 0 0
748 1 3.2288387420120408e+00 7.8306075419347954e+00 9.6497412625921495e+00 0 0 0
295 1 1.3503574494463932e+01 1.0815123700613555e+01 7.3776741991728834e+00 0 0 0
332 2 1.6869681888009531e+01 1.0541855012022225e+01 1.3691882336445316e+00 0 0 0
281 2 1.1293968103881539e+01 9.3182367876395613e+00 9.2082572370911180e+00 0 0 0
539 2 1.7005735025011570e+00 6.6684124580823241e+00 3.9354869026870570e-01 0 0 0
255 2 1.0507420900860224e+01 1.1070130302698837e+01 3.4910041628120414e+00 0 0 0
146 2 1.4747041427777203e+01 7.3128286326705494e+00 7.7979505648221972e+00 0 0 0
178 1 7.6721652269162721e-01 1.0692815568590456e+01 5.0102975984046552e+00 0 0 0
107 2 9.3717980793940718e+00 1.7319601678869090e-01 6.3650905995100162e+00 0 1 0
26 2 1.5812377580740026e+01 2.0009064898851729e+00 5.4109517161109002e+00 0 0 0
486 2 1.4840746239980536e+01 2.4948775224441216e-01 3.3747560331204314e+00 0 0 0
22 1 -2.9930670517349522e-01 4.7153356493222454e-01 7.1729440491235126e+00 0 0 0
135 2 -2.5958485662020463e+00 1.8225018716079300e+00 9.3158686615837869e+00 0 0 0
160 1 1.5738310881514959e+01 7.5908463233671697e-01 2.3635857530718468e-01 0 0 0
301 1 1.4814208801770961e+01 8.8307079902169043e+00 8.9371936328814137e+00 0 0 0
248 2 7.6443989523760516e+00 1.0918206353559231e+01 1.3772588298315958e+00 0 0 0
601 1 7.6956611994116404e+00 3.4381351230308388e+00 9.4096537030795844e+00 0 0 0
161 2 1.5752781125211525e+01 4.0439402619946663e-01 1.1984982731951486e+00 0 0 0
133 1 1.4868327046492707e+01 1.4743208891305009e+00 8.8571246372924133e+00 0 0 0
25 1 -1.6546016742126968e+00 2.3176981227316795e+00 5.7664732192691162e+00 0 0 0
263 2 1.0193729706132794e+01 1.1060077604348056e+01 5.6614223599463962e+00 0 0 0
106 1 9.0373119777857749e+00 7.8810162481637447e-01 7.0625654228986399e+00 0 0 0
27 2 -1.7916758118126235e+00 3.1700255871624807e+00 6.2470231909853311e+00 0 0 0
152 2 1.6706371902254055e+01 4.4234730286303039e+00 3.6381619275639290e+00 0 0 0
101 2 1.2337425232816274e+01 2.3301796738254668e-01 1.7585088916251859e+00 0 0 0
519 2 -3.5508757955432335e-01 2.8001639650252583e+00 9.5005184851173645e+00 0 0 0
29 2 1.5519362863482451e+00 1.8764766290104860e+00 9.3012080020929204e+00 0 0 0
266 2 1.1068520370418481e+01 1.0680922126038485e+01 1.0329508746148091e+00 0 0 0
74 2 5.2029086622127991e+00 2.6888318874178818e-01 5.6662182913516119e+00 0 0 0
8 2 1.7592697019271640e+01 5.4793592450570374e+00 7.4937573596831775e-01 0 0 0
750 2 4.1580155289460858e+00 8.1955920276775593e+00 9.4554831347910326e+00 0 0 0
197 2 2.0852881964376939e+00 9.0238441030606360e+00 9.3019210167643145e+00 0 0 0
211 1 4.3028198006214744e+00 1.0736764592947090e+01 7.3712321069722568e+00 0 0 0
398 2 5.5481597302257564e+00 2.5063063139878378e-01 7.6869207849488106e+00 0 1 0
603 2 8.5023278639055508e+00 2.8802143671270626e+00 9.2669832951398394e+00 0 0 0
195 2 -1.8583240880795706e+00 1.0650827194487769e+01 6.2877963814284827e+00 0 0 0
193 1 -1.5554417798153912e+00 9.8011901733558897e+00 6.0099003331256515e+00 0 0 0
222 2 5.1408462945464652e+00 1.0988988499597902e+01 4.2901268273312594e+00 0 0 0
151 1 1.6516460141133024e+01 5.2570517101233607e+00 4.1304724621664990e+00 0 0 0
72 2 3.8667394485973108e+00 5.7072226815688900e+00 8.8508878856203155e-01 0 0 0
219 2 6.3711494729107834e+00 9.0914183778548647e+00 9.1371922892289650e+00 0 0 0
182 2 1.5369466916494012e+00 1.0831638643124403e+01 1.1025294206026635e+00 0 0 0
402 2 6.0259711965108060e+00 2.0364985329858992e-01 3.2354896179904626e+00 0 0 0
251 2 4.7623426303902132e+00 1.1036884287161172e+01 2.0814892397511384e+00 0 0 0
517 1 -1.2792749056709292e+00 3.1337730931979428e+00 9.5895414934538863e+00 0 0 0
303 2 -2.6775129353806353e+00 9.3180535253003640e+00 9.3119508665178721e+00 0 0 0
77 2 6.4668323705197981e+00 4.6234171185548917e-01 1.2585598599997163e+00 0 0 0
582 2 3.7937407980183000e+00 1.4886048550308302e+00 9.5602023786447905e+00 0 0 0
687 2 -6.0712234914200458e-01 1.0031234166779061e+01 9.5302940081149963e+00 0 0 0
76 1 6.3928394086555160e+00 9.3738980114047088e-01 4.3023529816170614e-01 0 0 0
769 1 7.7464511180346367e+00 1.0298600171097730e+01 9.6280241682138570e+00 0 0 0
644 2 1.5210175528780786e+01 5.0362204320035753e+00 2.2619467480806713e-01 0 0 0
328 1 1.5516821919895154e+01 8.0484648869528179e+00 2.5811229185409007e-01 0 0 0
212 2 4.7588156738754517e+00 1.1187255600809396e+01 6.6843447436271832e+00 0 0 0
119 2 7.5964169599267093e+00 6.8989676426194348e+00 9.6563891821244781e+00 0 0 0
801 2 9.3280307759970906e+00 1.0203006541420930e+01 1.6196259556850762e+01 0 0 0
805 1 1.1088836131746730e+01 9.1318904034681427e+00 1.8411710147092244e+01 0 0 0
699 2 -5.1105816980630223e+00 1.0504920965631177e+01 1.5944840467511916e+01 0 0 0
330 2 9.6694344533298491e+00 8.3283047229393059e+00 1.9030240017112767e+01 0 0 0
596 2 5.3738760007608191e+00 5.8041526329403501e+00 9.8899370293950302e+00 0 0 0
581 2 3.0692726153046990e+00 7.6996089063124840e-01 1.0799639134663433e+01 0 0 0
831 2 1.0360517201031616e+01 8.7941238196097782e+00 1.4710383083561007e+01 0 0 0
639 2 -6.0792291793321480e+00 2.1294189298633572e+00 1.8786475951527294e+01 0 0 0
181 1 -5.1393004823006985e+00 1.0537976637076362e+01 1.9102418892249432e+01 0 0 -1
802 1 8.6207204767794590e+00 9.0009333305787660e+00 1.4844334771195504e+01 0 0 0
559 1 3.6911347104890346e-01 4.6938738332930043e+00 1.9158483975520099e+01 0 0 0
605 2 8.9500718864544684e+00 5.9810417276016170e-01 1.1331867072907125e+01 0 0 0
623 2 4.1059694005725769e+00 6.7889937717303290e+00 1.9042027157636134e+01 0 0 -1
755 2 1.3134431359813110e+00 1.0860698097554973e+01 1.1403740288050372e+01 0 0 0
785 2 7.8155760202526761e+00 9.4026768786726720e+00 1.8685638947945783e+01 0 0 0
799 1 9.7854559522408575e+00 1.0912628237964139e+01 1.6723514165292976e+01 0 0 0
786 2 6.5773505136267447e+00 9.1919382244788927e+00 1.7703208064633266e+01 0 0 0
682 1 -2.6499440065972260e+00 1.0525187889051546e+01 1.4348155217716203e+01 0 0 0
139 1 1.2937622078574298e+01 4.4987916907079306e+00 9.9457985539959672e+00 0 0 0
34 1 -7.2356712645288734e-01 6.8389297190314577e+00 9.7516584802932567e+00 0 0 0
770 2 7.6141725896201198e+00 1.0838192082204220e+01 1.0425263815543175e+01 0 0 0
265 1 4.5176858998016325e+00 1.0350340542455264e+01 1.9138482252122216e+01 0 0 -1
576 2 2.4414892534562105e-01 5.3451205920295752e+00 1.0253010745745211e+01 0 0 0
806 2 1.0655621937182303e+01 9.7709822555023873e+00 1.7821093871499912e+01 0 0 0
635 2 8.4042761962435470e+00 7.8532522335023536e-01 1.5853480796356555e+01 0 0 0
715 1 8.4383051643072449e-01 1.1009126551783762e+01 1.6679451058735872e+01 0 0 0
664 1 1.2335418335749891e+01 6.9779833881409137e-01 9.7263629318527514e+00 0 0 0
665 2 1.2103243453631059e+01 4.5081730607587456e-01 1.0684474532643629e+01 0 0 0
609 2 6.0691202432190607e+00 3.8420842420296986e-01 1.1563358714734793e+01 0 0 0
505 1 -1.5952104145169819e+00 4.4343572103534559e+00 1.1991582804541297e+01 0 0 0
506 2 -7.9675881720015207e-01 4.8779223203018933e+00 1.2344877932771848e+01 0 0 0
507 2 -2.0153822221753086e+00 4.3526153036156341e+00 1.2825324870183941e+01 0 0 0
508 1 -4.3724850258030834e-01 5.8886229706031692e+00 1.3842038796335846e+01 0 0 0
509 2 4.1648365329972847e-01 5.6208250019116699e+00 1.4217134005209793e+01 0 0 0
510 2 -1.9966401551994828e-01 6.8070503935748361e+00 1.3558450950188627e+01 0 0 0
511 1 -3.1798255385366541e+00 6.0687692750834810e+00 1.0538689715993629e+01 0 0 0
99 2 5.2502229425783389e+00 2.9063876044619255e+00 1.9174946010762078e+01 0 0 0
513 2 -2.5618074970319968e+00 5.4554784117752808e+00 1.0995575178450570e+01 0 0 0
514 1 -2.4614394911854993e+00 3.1936600838065861e+00 1.4565136930698003e+01 0 0 0
515 2 -2.2477222490631714e+00 3.7516214105756758e+00 1.5313634666527213e+01 0 0 0
516 2 -3.4050469222578235e+00 2.7965033723549357e+00 1.4636214812586742e+01 0 0 0
610 1 5.3838223581670706e+00 3.2184894195508373e-01 1.6723882640740818e+01 0 0 0
518 2 -1.3760821445530094e+00 3.5302086580772789e+00 1.0448913529854071e+01 0 0 0
533 2 -1.6705456823929818e+00 2.1218398407238777e+00 1.8708751635873099e+01 0 0 0
520 1 -2.5615727821418366e-01 9.5792058957712545e-01 1.1905118428673516e+01 0 0 0
522 2 -1.1637113737443521e+00 1.1931004742227211e+00 1.2063707205086681e+01 0 0 0
523 1 -3.1427057987789278e+00 1.0401829862920344e+00 1.2357601796207918e+01 0 0 0
524 2 -3.8515574031088189e+00 1.7645775241832609e+00 1.2316767611960206e+01 0 0 0
829 1 1.1237034952018321e+01 8.4833961878427893e+00 1.4753600661059677e+01 0 0 0
528 2 -4.2370757460297268e+00 1.3415529396260915e+00 1.6256287455492505e+01 0 0 0
529 1 -5.1566853798245775e+00 2.3299030776423852e+00 1.5511176189143603e+01 0 0 0
530 2 1.2345215370802451e+01 2.0052954907448806e+00 1.4986865598035656e+01 0 0 0
531 2 -5.4233239611198991e+00 3.2043128569651960e+00 1.5928975337895663e+01 0 0 0
532 1 -2.3811888302433619e+00 2.5079352663538725e+00 1.8215524036005796e+01 0 0 0
538 1 -4.1336382851893525e+00 6.8092350872885525e+00 1.9120870760579081e+01 0 0 0
534 2 -2.7538962061905594e+00 1.7429723515244677e+00 1.7671238675654969e+01 0 0 0
535 1 -2.9231204371711854e+00 6.5907462681809497e+00 1.4553183413723795e+01 0 0 0
536 2 -2.0455029255014252e+00 6.2770510545632625e+00 1.4377964456749739e+01 0 0 0
537 2 -3.0657813200623250e+00 7.1806081550387795e+00 1.3800799429050755e+01 0 0 0
685 1 -1.5241607701769961e+00 1.0241962301625199e+01 9.7473794527165207e+00 0 0 0
662 2 1.1203159065331258e+01 1.5367177698761134e-01 1.5383581032648985e+01 0 0 0
540 2 -4.0406536048025785e+00 7.1269936754109375e+00 1.8179559523659528e+01 0 0 0
541 1 -5.3826986771381300e+00 4.7029377687817213e+00 1.6975017561571157e+01 0 0 0
542 2 -4.4215618428764163e+00 5.0019756081300555e+00 1.6892702769900943e+01 0 0 0
543 2 -5.3542079966663572e+00 4.3464969049687854e+00 1.7911236384026282e+01 0 0 0
544 1 -2.5079911195273938e+00 4.8140284055495366e+00 1.6715448982914566e+01 0 0 0
545 2 -1.7624331620595157e+00 5.4681121667155681e+00 1.6943854618187125e+01 0 0 0
546 2 -2.3360082591252040e+00 4.1159801509448055e+00 1.7420307789251780e+01 0 0 0
547 1 7.8802741152892519e-01 3.1632276283842926e+00 1.6789782653116269e+01 0 0 0
548 2 1.2166655455024964e+00 3.6119122666920358e+00 1.6003154942597703e+01 0 0 0
549 2 1.2489684564197923e-01 2.7079958919974381e+00 1.6250112575397409e+01 0 0 0
550 1 -6.1154210092976502e-01 1.5879781959295918e+00 1.5163283398448002e+01 0 0 0
551 2 -8.6056328573729868e-01 7.4119439169072165e-01 1.5651309217968151e+01 0 0 0
552 2 -1.3795680768042122e+00 2.0879661720332665e+00 1.4857593512520916e+01 0 0 0
553 1 2.1183390926118166e+00 1.5518943397766249e+00 1.8549815289984828e+01 0 0 0
554 2 1.6855073250522077e+00 2.1019157473129786e+00 1.7835681491259550e+01 0 0 0
56 2 2.7642985127917585e+00 4.6642376667440919e+00 9.8775373864581724e+00 0 0 0
556 1 1.7016889755626075e+00 4.4331916746288025e+00 1.4536579546947731e+01 0 0 0
557 2 2.5926086196627214e+00 4.8370293002774911e+00 1.4724760904976147e+01 0 0 0
558 2 1.9716540106968701e+00 3.6957971728527035e+00 1.3937349681130671e+01 0 0 0
561 2 4.0766987691457146e-01 4.1709115376154795e+00 1.8300845539031059e+01 0 0 0
562 1 -5.5095158623218055e-01 6.5656813064844366e+00 1.7015911288963309e+01 0 0 0
563 2 3.7960924325093348e-01 6.3037685009519926e+00 1.6844963845523218e+01 0 0 0
564 2 -5.7073007918642205e-01 6.9490812206656489e+00 1.7922961136236260e+01 0 0 0
565 1 2.1739163094631504e+00 6.8377457679295404e+00 1.6617892015521200e+01 0 0 0
566 2 2.4024743089405636e+00 7.6246145236796137e+00 1.7205409197042691e+01 0 0 0
567 2 2.6933993310261064e+00 6.0634122632368914e+00 1.6848758667051669e+01 0 0 0
568 1 2.4562321324358791e+00 6.7796452063794401e+00 1.2119057542621128e+01 0 0 0
569 2 3.1046058717621570e+00 6.2262524080632025e+00 1.2564082150584692e+01 0 0 0
570 2 2.3262868660085418e+00 7.5568923079025492e+00 1.2726587532811330e+01 0 0 0
571 1 4.1851867923867969e+00 5.2255951836372585e+00 1.3532692029014434e+01 0 0 0
572 2 4.5935007105643137e+00 4.5538265012752159e+00 1.3026317026696312e+01 0 0 0
573 2 4.9644139564980305e+00 5.8093115308597021e+00 1.3790964389413348e+01 0 0 0
574 1 9.7897992034066350e-01 4.9761814270995481e+00 1.0790980781797089e+01 0 0 0
575 2 1.3747224337764519e+00 5.7076392801080313e+00 1.1352621364990398e+01 0 0 0
752 2 3.9703050995429567e+00 1.0650262406777834e+01 1.1212481055951487e+01 0 0 0
267 2 5.4301748189652486e+00 9.9725999492441009e+00 1.9078828033757929e+01 0 0 0
803 2 8.4408265648946816e+00 8.1124106176946249e+00 1.5295073214710381e+01 0 0 0
579 2 1.0248055625722872e+00 1.1822409356680403e+00 1.4579639581737945e+01 0 0 0
526 1 -3.6163145746204663e+00 6.8290429810433206e-01 1.6664859757058203e+01 0 0 0
583 1 4.3087770564467558e+00 3.0330312028101676e+00 1.1740329547784819e+01 0 0 0
584 2 4.2102327411044005e+00 3.5349123665725073e+00 1.0929716299008636e+01 0 0 0
585 2 3.3911189518534153e+00 2.7063982795855641e+00 1.2022111025422275e+01 0 0 0
586 1 1.6381653716532742e+00 2.8170916953587737e+00 1.2305417909555679e+01 0 0 0
587 2 1.2797347818856313e+00 3.6032727179419530e+00 1.1858726445799597e+01 0 0 0
588 2 8.7165173068973356e-01 2.1245327864163599e+00 1.2213699976952091e+01 0 0 0
589 1 7.4881216161344479e+00 4.2047414551272189e+00 1.1960638585917506e+01 0 0 0
590 2 8.1506786549317223e+00 4.8179224801249534e+00 1.2350730257390786e+01 0 0 0
591 2 7.0906002808464361e+00 3.6773421472436181e+00 1.2752074563775787e+01 0 0 0
592 1 8.9024302198842573e+00 6.0200023941154424e+00 1.3506410722705708e+01 0 0 0
593 2 9.7422918884133161e+00 5.7230566085381254e+00 1.3949728760814772e+01 0 0 0
594 2 9.1803823607270267e+00 6.8248033863213982e+00 1.3112051807762940e+01 0 0 0
595 1 6.2285915181520455e+00 6.1116558571491639e+00 1.0332438055910993e+01 0 0 0
957 2 6.4076721801908469e+00 2.4449728145259700e-01 1.3618397701719358e+01 0 1 0
597 2 6.4406197187140357e+00 5.3076543429277878e+00 1.0892727490534421e+01 0 0 0
598 1 6.6233384373489796e+00 3.0285341683286608e+00 1.4258008749074927e+01 0 0 0
599 2 6.5316186485216523e+00 3.6653398623860203e+00 1.4989148421042586e+01 0 0 0
600 2 5.6911244866068440e+00 2.8469893739661569e+00 1.4179851049577481e+01 0 0 0