LAMMPS data file via write_data, version 3 Mar 2020, timestep = 0

2016 atoms
2 atom types

0.0000000000000000e+00 1.7938907171201301e+01 xlo xhi
-1.2939022563854508e+00 4.6290062233302876e+01 ylo yhi
0.0000000000000000e+00 1.9077190137438066e+01 zlo zhi
4.6262627085857717e-02 -6.6529989465725805e+00 -2.1216974562790369e-02 xy xz yz

Masses

1 16
2 2

Atoms # atomic

579 2 2.0791751665215177e+00 3.5216176949291205e+00 1.4803649184623623e+01 0 0 0
223 1 3.2694008182685490e+00 7.1666731245927746e+00 4.9703574078225364e-02 -2 0 -1
995 2 1.0851141009854679e+01 6.1116619880696934e+00 9.4601001648687841e+00 3 0 1
654 2 1.5506200851556269e+01 6.2058666611920303e+00 6.4031168821043076e+00 -2 0 0
394 1 9.2335895519120026e+00 4.6466066972004230e+00 2.7776643466521085e+00 -3 0 -3
578 2 3.2845756625394102e+00 2.9151750470209388e+00 1.4286362265179752e+01 0 0 0
929 2 1.3574380997355034e+01 1.8935965261069079e+00 6.9796157480282144e+00 0 0 0
513 2 7.9789136603480282e+00 -4.8697024571566772e-01 1.4874356057551399e+01 1 0 0
705 2 -4.5236569350343343e+00 1.8746470728943012e+00 1.3877940773962441e+01 -2 0 -1
302 2 1.2447158010510107e+00 6.3792299819925971e+00 1.8377986023199426e+01 0 0 -1
299 2 1.1000654904735889e+01 4.0163484216109264e+00 1.7359797063843683e+01 -3 0 -2
896 2 4.6296348305189481e+00 5.9729772262368153e+00 1.8807908906780721e+01 -1 0 -1
1994 2 7.6518254708182587e+00 9.8782566812763033e+00 3.1637187457665163e+00 -2 0 -2
506 2 1.4631539053823952e+01 8.4759805905333145e+00 2.7171367133565956e+00 -4 0 -2
368 2 1.6006135906797294e+01 7.2595796223133213e+00 4.0497267633202618e+00 -2 0 0
596 2 7.5787117210536348e-01 7.1026644016156801e+00 6.6962480001843012e+00 3 0 -2
685 1 4.8480987627494905e+00 -6.7159557545930160e-01 1.0108562084048248e+01 -3 0 1
527 2 3.7622706751467998e+00 1.0666091021419533e-01 5.6662644770424153e+00 -2 0 0
881 2 1.0624743878850042e+01 5.0780350968433563e+00 7.6071774088999220e+00 -3 0 2
319 1 1.0884217670882501e+01 -2.1725801091309149e-01 1.4135154392103864e+01 -4 0 -3
53 2 8.4781167627544214e+00 3.5507194601396970e+00 6.2163841234259963e-02 2 0 0
950 2 -4.1542032034413392e+00 3.7785549157843601e-01 1.5876594764035032e+01 -1 0 1
609 2 5.1058351477526918e+00 1.5294372620666348e+00 2.6557952289333930e+00 -3 0 0
1583 2 1.2404202764633695e+01 1.5147115111808809e+00 1.1657118326547618e+01 -1 1 1
122 2 6.5021617729184582e+00 7.3989533295100269e+00 1.3226636372026960e+01 -2 0 -1
295 1 9.1298455290685787e-01 7.5531965240566716e+00 2.5726685929108055e+00 2 0 3
407 2 1.1901657109465624e-01 1.7673074322150040e-02 8.8916212151410949e+00 -2 0 -2
707 2 -6.0468530211640115e-01 5.6967189105844938e+00 1.3311757180686261e+01 -1 0 -1
972 2 4.0155298849745407e+00 5.4193794400699433e+00 2.2204271726921641e+00 0 0 1
166 1 1.0459171277273068e+01 9.2047160339739023e+00 4.1612639666282867e+00 -4 0 -3
244 1 -3.6990554633599046e+00 4.5011592887176635e+00 1.5612316769885645e+01 -3 0 -4
616 1 3.7136554336212546e+00 1.0466728340967538e+01 1.2260321396677025e+01 -2 0 -1
449 2 6.4706286875865748e+00 1.0257691140096176e+01 1.3306748625910073e+01 -1 0 1
911 2 1.2207181422265318e+01 1.9304308932436474e+00 3.1193679254485605e+00 -2 0 1
768 2 1.1891705049276446e+01 9.7802860631746107e+00 1.2221999526425147e+01 -4 0 -1
301 1 1.7124452384264828e+00 6.0441761083595100e+00 1.7615757159648609e+01 0 0 -1
948 2 -1.5820620436946831e-01 -3.2846897965293886e-01 3.2944222475121441e+00 0 0 4
890 2 1.1459911597686123e+01 7.6318397916599645e-01 6.6290952170365216e+00 -1 0 0
463 1 -3.8757582550604797e-01 7.4389429716582143e+00 9.8980165338232453e+00 2 0 0
161 2 -3.4133841851569628e+00 7.1962287222823598e+00 1.1244883863978179e+01 1 0 -5
524 2 3.4602001598144518e+00 4.8558174888080430e+00 1.1858337871718227e+01 -2 0 -4
585 2 1.2909281462664531e+01 5.8443721328016611e+00 1.2847315669992964e+01 -5 0 -4
523 1 2.4824415587038606e+00 4.6338719880622952e+00 1.1899579679979285e+01 -2 0 -4
658 1 4.4713028400184536e+00 1.4588202575271110e+00 1.4960382898924676e+01 -1 0 -2
206 2 5.5379414744597284e+00 5.2967963104997384e+00 8.7386579288501629e+00 3 0 0
96 2 1.0864708129339910e+01 6.3673600646394641e+00 1.9168348593145401e+00 -2 0 -1
441 2 1.1291720829567154e+01 7.4122030118035607e+00 1.4763635566863782e+01 -3 0 -1
151 1 6.4802450015721567e+00 2.6764407275484179e+00 2.8654404520443029e+00 3 0 0
781 1 -6.4892181730151632e-01 5.0695204498623481e+00 2.5430484063348606e+00 -2 0 -2
880 1 1.0476039709088914e+01 4.8497817650837707e+00 8.6309547867095553e+00 -3 0 2
626 2 6.1005186336730333e-01 3.7033362043172726e+00 1.6180588145761210e+01 0 0 -1
962 2 2.0885805907712687e+00 1.2719304408879197e+00 1.3964401710504319e+01 -3 0 -1
703 1 -4.6797704827736952e+00 2.0575973686498994e+00 1.4885763935210159e+01 -2 0 -1
382 1 1.5331603210796336e+01 6.4089531995637783e+00 1.1715019888103677e+00 -2 0 1
830 2 3.9722962945407323e+00 8.6612913901928845e+00 4.0292933410690486e+00 -3 0 0
993 2 1.3217122559188365e+01 -6.9588516882687423e-01 9.8144255168013554e+00 1 0 1
54 2 9.6571214744550726e+00 2.5606606283534994e+00 2.6462768333074010e-01 2 0 0
921 2 1.0496018924336676e+01 -1.1800774218643999e+00 9.4540918978952515e+00 0 0 -2
689 2 -8.5619802814396140e-01 2.3539017809324561e+00 8.6394598642322400e+00 -2 0 0
336 2 1.1435559969508441e+01 9.4405424124228237e+00 7.8178853936550814e+00 -2 0 -2
392 2 -1.7771735498370895e+00 8.8896630484896733e+00 1.2976327035012675e+01 -1 0 -1
652 1 1.5910519050681250e+01 6.3006570369978272e+00 5.5058065360704687e+00 -2 0 0
52 1 9.4652887089319400e+00 3.5418055174617109e+00 2.3382502198647950e-01 2 0 0
356 2 -5.3994735993980303e+00 5.7120020220249996e+00 1.8127636043350147e+01 -4 0 -3
477 2 5.2580926863631774e+00 5.7425174177723290e+00 1.0756916321410719e+01 -1 0 2
500 2 -1.2947359748444134e+00 7.3165436233719783e-01 1.3582753261423022e+01 1 0 0
367 1 1.6196305023840377e+01 8.0764006605450156e+00 3.4891857129032542e+00 -2 0 0
806 2 9.8307029191028903e+00 6.3569733501947381e+00 5.5281548614480229e+00 -4 0 1
891 2 1.1676296508144961e+01 -9.0379384295785870e-01 6.7632186507935073e+00 -1 0 0
810 2 7.4601802772134516e+00 6.5134200033419702e+00 8.3616376848468068e+00 -4 0 -1
930 2 1.3097068428594774e+01 2.6484530567265163e+00 5.6680007379369757e+00 0 0 0
951 2 -2.9530201094776736e+00 -4.5649790580651084e-01 1.6644773884224772e+01 -1 0 1
501 2 2.0288620200121965e-01 6.9792538396615567e-01 1.3887696665545825e+01 1 0 0
625 1 1.5717044312030586e+00 3.6833976011565817e+00 1.6456337282737739e+01 0 0 -1
268 1 -4.9632951381514889e-01 9.0225090394152350e+00 1.4495803489534616e+01 2 0 -2
101 2 1.3134669539327817e+00 5.9087299059490723e+00 1.2195827360341397e+01 -1 0 -1
384 2 1.4565503029257178e+01 6.2102595162912619e+00 1.7842409713504817e+00 -2 0 1
245 2 -4.2941944073251559e+00 4.9105442744866012e+00 1.6266292667597110e+01 -3 0 -4
622 1 3.0047543130023784e+00 3.2176727026002174e+00 1.7361501825498551e-01 -2 0 -1
624 2 3.0442038743901372e+00 3.8443573120176371e+00 9.2237848583302084e-01 -2 0 -1
179 2 5.0063774531402885e+00 3.4704063544250392e+00 1.7048147236744082e+01 -3 0 -1
686 2 4.0399806947336518e+00 -1.1341298143696099e+00 1.0034004500437955e+01 -3 0 0
230 2 1.5730573977302833e+00 -6.9928921368764074e-01 7.1248885037444936e+00 0 0 -2
537 2 -1.2411193439233668e+00 8.2440454183126555e+00 6.4728773232440400e+00 -2 0 2
388 1 1.4252675854978262e+01 4.0528973781593924e-02 4.5180737972199232e+00 -1 0 0
600 2 -1.8146041098542915e+00 5.5485664968034509e-01 7.1919830180704158e+00 -3 0 1
49 1 8.2468211307984891e+00 4.7930035675661991e+00 1.1658352131972425e+01 -1 0 0
183 2 1.9776395402079427e+00 4.3555718378554413e+00 1.0165394643381909e+01 0 0 0
464 2 -8.9860069634448259e-02 7.0714729763725206e+00 1.0712917851164727e+01 2 0 0
761 2 7.0987603512731949e+00 -3.4476790677357627e-01 3.2086525135001091e-02 -3 0 2
19 1 6.0363979779357955e+00 1.0423814100478330e+01 6.0779372595426633e+00 -3 0 -3
671 2 -7.2310098579765114e-01 9.0353381414608291e-01 4.9762227135340904e+00 -3 0 -1
135 2 3.7807356916083878e+00 3.8442509034945784e+00 8.9674547597388834e+00 1 0 -1
778 1 4.6261872406148159e+00 8.2639583124986533e+00 5.5311566460743657e+00 1 0 0
289 1 8.2999432079919906e+00 1.0096446669371899e+01 7.3963072729854451e+00 0 0 3
598 1 -1.5348150023746305e+00 -9.7827637820969926e-02 7.8120806202685600e+00 -3 0 1
120 2 6.5527505473693317e+00 5.7748877665860565e+00 1.9489348225405725e+00 -2 0 -2
150 2 1.3350807136934746e+01 8.8684718436337064e+00 5.5143833152623623e-01 -4 0 0
640 1 -2.5027798647617594e+00 3.9502708740054171e+00 1.1418877325744099e+01 4 0 -1
753 2 1.5596760896113206e+01 7.9142837565478263e+00 2.7886382534040643e-01 -1 0 3
846 2 6.3064722856473132e+00 -6.5933384890955082e-01 1.2155163254201138e+01 1 0 1
119 2 6.2544779039322993e+00 4.3876592380522510e+00 2.6461943278457611e+00 -2 0 -2
525 2 2.3760762551233103e+00 3.9287946623777250e+00 1.2583326825988676e+01 -2 0 -4
710 2 2.4314616485042553e+00 8.1884139016785316e+00 1.4345005173345324e+01 -3 0 -2
971 2 2.5900535811759600e+00 5.2305441443723319e+00 2.8079172548336593e+00 0 0 1
559 1 8.5583727395359315e+00 -5.8913575819621311e-02 6.9685120276082211e+00 -2 0 1
212 2 9.2017041684729897e+00 2.9086696274321300e+00 5.2951644731021439e+00 -5 0 -2
269 2 -1.0222809203055698e+00 9.8195942687349156e+00 1.4749298498640215e+01 2 0 -1
5 2 4.0046495196378054e+00 7.8487727215605307e+00 7.1789593609767479e+00 1 0 0
470 2 1.0506796435510500e+01 2.9017524582408871e-01 1.7971813740355007e+01 -7 0 -3
471 2 -6.3110468204012102e+00 3.9578982170510257e-01 1.8986522157955861e+01 -5 0 -3
708 2 -2.1196641916576517e+00 5.8467306661925225e+00 1.3672695624370203e+01 -1 0 -1
85 1 2.0115145152868856e+00 7.0852318377509071e-01 8.0493015985961328e-02 2 0 -2
46 1 8.5294218866128197e+00 7.8619910092872480e+00 5.5635799748890573e+00 -3 0 0
857 2 -3.1862153624288019e+00 9.7592688936217549e+00 9.4152725130271921e+00 -1 0 -3
655 1 1.0166423411101514e+01 9.4583054284193100e+00 8.2101977521960925e-02 -3 0 0
627 2 1.7363645412927475e+00 4.5291621893355636e+00 1.6930909489011203e+01 0 0 -1
111 2 1.9164172540336750e+00 1.9730713383492415e+00 1.6649154672867144e+01 1 0 -4
869 2 1.3525905751093116e+01 4.9866503899870551e+00 6.5126847483741876e+00 1 0 0
16 1 -3.6734586204905435e+00 6.9009098637750661e+00 1.3870716003101714e+01 0 0 1
178 1 4.4029725890992095e+00 4.1912414784407384e+00 1.6967756837518014e+01 -3 0 -1
974 2 9.1288784346032514e+00 1.5209726800064547e+00 1.3723080441073852e+01 -4 0 -2
118 1 5.9268775888571152e+00 5.3129171249150975e+00 2.6258630331749861e+00 -2 0 -2
1914 2 1.9727278741899568e+00 9.6216281718863375e+00 1.8246194476060708e+01 -3 0 1
623 2 -2.8127082532559986e+00 2.9731438208310692e+00 1.8794963806617737e+01 -2 0 -2
1668 2 3.8115881592525094e+00 1.1846695913281993e+00 1.5677038940253551e+01 -1 1 -2
644 2 -3.2529893350442007e+00 1.2517329830345032e+00 1.2222910931344947e+01 -3 0 -3
21 2 6.9001124851419213e+00 1.0446175948906255e+01 6.5742257773747355e+00 -3 0 -3
670 1 -3.1666827345834925e-01 1.3125302002577346e+00 5.7675368432882514e+00 -3 0 -1
239 2 3.7571194061456366e+00 8.0316402107529345e+00 1.6242918245991937e+01 0 0 0
716 2 -8.1172178190060507e-02 4.5183678039026516e+00 1.8589848656976944e+01 1 0 1
717 2 -4.2203346556408672e-01 3.0960073962381394e+00 1.8944657235599866e+01 1 0 1
240 2 2.3776265644476817e+00 8.8176996608738047e+00 1.6421138507036861e+01 0 0 0
904 1 1.2114061246170964e+00 9.6247097576591241e+00 1.7578522464311071e+01 -3 0 1
17 2 -3.3648796551454820e+00 7.7636804324743931e+00 1.3468200274531107e+01 0 0 1
779 2 5.2388194414448153e+00 9.0724668415169525e+00 5.6380126739650454e+00 1 0 0
531 2 8.1735272537018009e+00 -2.3269357899135179e-01 3.0955286963812578e+00 -1 0 0
645 2 -3.4515966595820333e+00 2.6833515611392698e+00 1.1906321452096117e+01 -3 0 -3
613 1 -1.5719670410297990e+00 2.1261781170748044e+00 1.7795749983381526e+01 -2 0 -1
246 2 -3.5334889274307271e+00 5.2289488868558411e+00 1.4974901354741215e+01 -3 0 -4
238 1 2.7704226656258184e+00 7.9259825997183100e+00 1.6033148728927014e+01 0 0 0
522 2 7.6458612577817462e+00 3.1735725767869005e-01 9.9474163249478043e+00 -5 0 -2
715 1 6.8397307354286694e+00 3.8101809949613692e+00 7.5193126090490767e-02 1 0 2
115 1 9.5232802309277744e+00 7.7641183894373400e-01 1.6487684992953174e+01 -5 0 -5
426 2 1.4088131018640864e+01 2.6759348969574734e+00 2.9919854966169601e+00 -2 0 1
606 2 1.5178230759850639e+01 1.5885227687691255e+00 4.1395957531954437e+00 0 0 2
709 1 1.9414822867784709e+00 8.5343768723027402e+00 1.3526558698301599e+01 -3 0 -2
539 2 2.6388769906313874e+00 1.0180437707722430e+00 2.9425133708974864e+00 -4 0 -3
933 2 -1.0333498506963616e+00 4.1005431361151414e+00 1.4952522464339769e+01 -2 0 -1
905 2 5.3021090222023570e-01 8.9475894661592097e+00 1.7740102255280028e+01 -3 0 1
868 1 1.3113981146753117e+01 4.5764606474105145e+00 5.7386845468554641e+00 1 0 0
427 1 -3.0200489695326551e+00 1.0060633812267575e+01 1.7969141670947920e+01 0 0 -1
18 2 -3.9525383167455672e+00 7.0794814553712193e+00 1.4767654520761401e+01 0 0 1
621 2 -4.9605399377370238e+00 8.4834041772359363e+00 1.5841004967489825e+01 -3 0 -1
504 2 5.0913564624053249e+00 7.0621198473619273e-01 7.1010050380111363e+00 0 0 -1
785 2 -5.6077634279311228e-02 1.8621321531092074e+00 1.2837350069529270e+00 -3 0 -2
870 2 1.2256128769911788e+01 5.0444376444614001e+00 5.7061054398282902e+00 1 0 0
211 1 9.9725295394668301e+00 3.1955644987809508e+00 4.7904286976709578e+00 -5 0 -2
387 2 1.7405837908895228e+00 3.0619756622959828e+00 7.9716499793324518e+00 0 0 -2
216 2 5.5795966880399139e-01 9.5452684104433896e+00 5.4160348319375320e+00 0 0 -2
643 1 -3.9584643322757693e+00 1.9210805170508509e+00 1.2245502615722277e+01 -3 0 -3
992 2 1.4037731872678371e+01 4.8898018351382122e-01 9.3271579146918544e+00 1 0 1
699 2 9.1962714210386096e+00 9.2218220095928398e+00 1.4546161081528219e+00 2 0 4
458 2 1.8806265112557963e+00 -3.4635237312977152e-01 1.6971626291551798e+00 -2 0 -2
116 2 9.9679019998728720e+00 4.7998240980958906e-01 1.5647930992790934e+01 -5 0 -5
224 2 3.9271573972984166e+00 7.8226977109283773e+00 2.9768291113848983e-01 -2 0 -1
845 2 7.6239267968967468e+00 2.1945748566134871e-01 1.2607637094989352e+01 1 0 1
48 2 9.1180568649864160e+00 8.5601488050716590e+00 5.3090017087357930e+00 -3 0 0
117 2 9.7194923137496474e+00 1.7104769718067305e+00 1.6662112267009405e+01 -5 0 -5
931 1 -7.9378395091847764e-01 3.3298392951266340e+00 1.5475334586089797e+01 -2 0 -1
991 1 1.4130978706278496e+01 -4.3786731517208355e-01 9.7403181253257625e+00 1 0 1
385 1 1.7760866698527620e+00 2.6740787513024329e+00 7.0488130215208837e+00 0 0 -2
738 2 1.2880211490641244e+01 8.3190379020089580e+00 6.2659348244730753e+00 -1 0 1
961 1 1.8882430596385191e+00 3.2003689699535220e-01 1.3759214039208240e+01 -3 0 -1
42 2 2.1194972440481372e+00 6.8040192253480551e+00 8.1620916626988791e+00 -2 0 3
726 2 1.3624493664432332e+01 2.6955507038223896e+00 8.9403681866687172e+00 1 0 1
876 2 1.2564107870410327e+01 8.7953489935895490e+00 1.0214482004795570e+01 -3 0 1
769 1 -2.6501405508825231e+00 5.4216769806689369e+00 7.8504813522185408e+00 1 0 -3
1002 2 8.5270490032751454e+00 8.2994069473806720e-01 1.2637252484330266e+00 -1 0 1
4 1 3.5395847339417750e+00 7.8346544265411797e+00 8.0545586296331670e+00 1 0 0
270 2 4.1743198617249444e-01 9.2802018155808774e+00 1.4384632530919017e+01 2 0 -1
41 2 5.9393539624841774e-01 6.8554211081439203e+00 8.7912891506036779e+00 -2 0 3
435 2 2.6476224306680591e+00 1.0452496149074584e+01 4.9323413259702592e-01 -1 0 1
812 2 7.7428430315177605e+00 5.4734951478615042e+00 1.6981106960512712e+01 -2 0 -1
932 2 -6.6226211962843529e-01 2.5963174864845873e+00 1.4854384799609985e+01 -2 0 -1
828 2 5.2098967854620311e+00 9.7423154475875045e+00 7.2291936298019421e-01 1 0 1
213 2 1.0494425581787812e+01 2.4287556150556382e+00 4.6028532121485117e+00 -5 0 -2
507 2 1.3232276407425655e+01 8.4687451356923216e+00 3.2872990646371054e+00 -4 0 -2
334 1 1.1887604223250776e+01 8.6017496315787838e+00 7.5829330867398479e+00 -2 0 -1
338 2 1.3679029445078781e+00 4.3800465811835627e+00 4.6362369081771879e+00 -1 0 -1
938 2 6.6479740180367202e+00 7.7454977429033480e+00 1.1159958878928296e+00 1 0 1
969 2 4.8722470922558276e+00 1.0355934957922579e+00 1.1379573753941514e+01 -1 0 1
545 2 2.8738658378294470e+00 1.3882096563829385e+00 1.1137403894809818e+01 2 0 1
386 2 1.1011948454073632e+00 3.1702733020731042e+00 6.5900100228333400e+00 0 0 -2
937 1 7.3373098477707703e+00 7.0600655028547763e+00 8.8708425938063939e-01 1 0 2
40 1 1.1926388790008446e+00 6.3963294748548547e+00 8.0694048313033626e+00 -2 0 3
786 2 7.9805117314627072e-01 2.0740108784367912e+00 2.5308196074078086e+00 -3 0 -2
605 2 1.6393393575189108e+01 2.2642420549825042e+00 3.3679160042295870e+00 0 0 2
724 1 1.4206938699971712e+01 2.0646497738739722e+00 8.4529601632307987e+00 1 0 1
784 1 -1.4533768106931355e-01 2.1428858526835923e+00 2.2073818106280121e+00 -3 0 -2
967 1 4.6112017534225913e+00 2.0163670297360872e+00 1.1532951148924198e+01 -1 0 1
553 1 5.6911676187534255e+00 4.8102792752838193e+00 1.4620520483697961e+01 -5 0 -2
681 2 4.8086616170953702e+00 1.4767047879217627e+00 1.8673629549614297e+01 -3 0 -3
649 1 7.7255212327936764e+00 2.3146568606575046e+00 5.6297018643090677e+00 -4 0 0
650 2 7.1440490529824796e+00 2.8509918270740657e+00 6.2224907864249994e+00 -4 0 0
51 2 8.1185097030652802e+00 4.5178615270349098e+00 1.0737648857968008e+01 -1 0 0
36 2 -6.4654156689731701e-01 4.4395881638010364e+00 4.1270342114535863e+00 -1 0 0
945 2 3.1658313378241822e+00 3.0850851984772456e+00 6.1959693416574755e+00 0 0 3
673 1 -6.1713490876839021e+00 7.4549849486859650e+00 1.8352366964299055e+01 0 0 -4
939 2 8.2593434986311838e+00 7.3396226260671877e+00 1.1216442497434240e+00 1 0 1
397 1 1.3511456358638023e+01 5.4153378851942247e+00 3.1040613033147326e+00 2 0 0
127 1 8.2216633056742587e+00 4.6169912761954119e+00 1.8449377156775405e+01 -2 0 -2
128 2 7.5726347614071736e+00 3.9775630208521502e+00 1.8730909893770065e+01 -2 0 -2
1407 2 1.3626300592461927e+01 5.2878902684945794e+00 4.0856312755879332e+00 2 0 0
34 1 -5.2045147019686411e-01 4.1414345317954160e+00 5.0221076665678170e+00 -1 0 0
928 1 1.3162276058897810e+01 1.7463729084225252e+00 6.1587194881568541e+00 0 0 0
540 2 2.7803227817232483e+00 2.1884230912627847e+00 3.8566387722581217e+00 -4 0 -3
152 2 6.7865478260222289e+00 2.3864086177260391e+00 3.7807915973869686e+00 3 0 0
439 1 1.0553911901263692e+01 7.7651072549411708e+00 1.4233295471254209e+01 -3 0 -2
350 2 1.3820295500434726e+01 1.4428567920270514e+00 1.9552183879432673e-02 2 0 4
163 1 8.5437122738844486e+00 8.4701664176103648e+00 1.6149619277531201e+01 2 0 0
162 2 -2.2149579894872424e+00 7.0821749536165814e+00 1.0354424701406270e+01 1 0 -5
783 2 1.6655865739173535e+01 5.5619361252653823e+00 1.9506845973794411e+00 -3 0 -2
148 1 6.5523646023096251e+00 9.2859548882240794e+00 1.8758908684660810e+01 -4 0 -1
994 1 1.1134552847786587e+01 6.9790034869987032e+00 9.7430162658388628e+00 3 0 1
725 2 -2.8691110418822880e+00 2.4452530871673916e+00 8.3424610577462701e+00 2 0 1
160 1 -3.0983767916981071e+00 6.6901570620826529e+00 1.0469912800858546e+01 1 0 -5
129 2 8.9558470631357494e+00 4.1581663232543526e+00 1.7946279729117215e+01 -2 0 -2
428 2 -2.4388367446814527e+00 9.4317730093878414e+00 1.7466209730835693e+01 0 0 -1
173 2 1.1298279763359293e+01 4.3928281145923602e+00 1.2313194902404218e+01 -1 0 -2
164 2 8.1931214803955079e+00 7.5587738928255703e+00 1.6097021461419555e+01 2 0 1
831 2 2.6818002734732707e+00 8.3747585331730363e+00 3.1587275826692176e+00 -3 0 0
856 1 -2.2820048940357731e+00 1.0078951603889092e+01 9.2080808625551640e+00 -1 0 -3
462 2 1.1419836640015857e+01 2.3204817160672380e+00 1.4741894207971773e+01 -4 0 -2
651 2 7.8100793540166542e+00 1.4152739197525235e+00 5.9384748994203296e+00 -5 0 0
996 2 1.0383612345783796e+01 7.3256025229491346e+00 1.0247286408444932e+01 3 0 1
611 2 1.2802399141730341e+01 3.8400782222174294e+00 1.0589512229800535e+01 -1 0 2
919 1 1.1218809690657430e+01 -5.4242314162674432e-01 9.4588694642651117e+00 0 0 -2
981 2 8.3360298305891138e+00 8.4668905453341736e+00 1.0130240794162047e+01 -2 0 0
406 1 9.7373731778176875e-01 -4.0206672399123866e-01 8.8489799143856125e+00 -2 0 -2
102 2 1.0473976367616649e+00 7.2592684827719918e+00 1.2857904267086104e+01 -1 0 -1
497 2 6.3143544932137274e+00 5.0796805158328056e+00 6.3459970808828583e+00 0 0 1
498 2 5.3037229130882242e+00 4.0296372336308863e+00 6.6859135336631370e+00 0 0 1
395 2 9.6803523374793254e+00 4.5165219850102112e+00 1.9239258188954931e+00 -3 0 -3
214 1 4.9432460702010594e-01 1.0442792698964933e+01 5.1693858672173283e+00 0 0 -2
349 1 1.3429205040507119e+01 2.3619951309234022e+00 5.4886881051396576e-03 2 0 4
679 1 4.0538872655766029e+00 8.8613168505551076e-01 1.8725714895770192e+01 -3 0 -3
398 2 1.2594277500298347e+01 5.7674876151374805e+00 2.9648699621394887e+00 2 0 0
924 2 4.5897243366101295e+00 1.0103526676148665e+01 1.3512503728401249e+01 -3 0 -3
672 2 5.0792595353673953e-01 8.0304349237324324e-01 6.0117157270666368e+00 -3 0 -1
321 2 1.1494288579765200e+01 8.5888443641672030e-02 1.3450153161878024e+01 -4 0 -3
943 1 3.9946535184197947e+00 3.3027592161213173e+00 5.5953676914719646e+00 0 0 3
86 2 -4.4126740638680726e+00 4.0016300135374228e-01 1.8252855543227593e+01 2 0 -3
297 2 2.0354548958774088e-01 8.0246143109994090e+00 3.0218813928329356e+00 2 0 3
220 1 -1.0241462464747633e+00 8.1827345911910374e+00 1.7075812420922009e+01 -2 0 -3
172 1 1.0535041190510956e+01 3.7257966283147512e+00 1.2339348093902739e+01 -1 0 -2
298 1 1.0267267495785681e+01 3.3901457193952744e+00 1.7147293492707455e+01 -3 0 -2
680 2 3.4634677226505488e+00 1.0041618686825386e+00 1.7967240227012095e+01 -3 0 -3
701 2 5.0335576490810467e+00 -4.8744113251717280e-01 1.7500091896853686e+01 -3 0 -3
538 1 2.1265163091366777e+00 1.5941328501299696e+00 3.5953178387011295e+00 -4 0 -3
944 2 3.7419712300753449e+00 4.1481386738453194e+00 5.2036439806545518e+00 0 0 3
100 1 5.7948229353667813e-01 6.5640568315804115e+00 1.2378867676757228e+01 -1 0 -1
1667 2 5.1950235436980119e+00 1.7060174771549961e+00 1.5530382809750947e+01 -1 1 -2
352 1 2.0556207546501870e+00 1.0093993757301837e+01 8.6578289017489904e+00 -1 0 0
174 2 1.0840106996347066e+01 2.8394424661942219e+00 1.1979865421386640e+01 -1 0 -2
687 2 4.8507368954141565e+00 -1.9401899173707648e-01 9.2237164829144422e+00 -3 0 0
465 2 -3.5179516719127557e-01 8.3773754907088023e+00 1.0214326876670503e+01 2 0 0
829 1 3.4829105543728911e+00 8.9003808545571861e+00 3.1974432534200692e+00 -3 0 0
460 1 1.0459219918659056e+01 2.6382128022548099e+00 1.4658526562776871e+01 -4 0 -2
607 1 4.5809172498269266e+00 7.6270654802273485e-01 2.4897451848924947e+00 -3 0 0
736 1 1.3406309232994758e+01 8.5419056917811602e+00 5.4197242459228328e+00 -1 0 1
369 2 1.6278783591330164e+01 8.6820968426308980e+00 4.1920274098385280e+00 -2 0 0
185 2 5.3479751038063137e+00 6.6496324976733856e-02 8.8129001136683449e-01 -4 0 -6
595 1 6.0587923246306508e-01 7.3240287360409742e+00 5.7386751056702501e+00 3 0 -2
528 2 4.4075934261876251e+00 1.5626647091398973e+00 5.5136433930575661e+00 -2 0 -1
109 1 2.3353721543157464e+00 1.1173085110717520e+00 1.6844301539417557e+01 1 0 -4
615 2 -1.4063299820195496e+00 2.5473124945318233e+00 1.6991829430088806e+01 -2 0 -1
712 1 -1.9038865869418888e+00 -6.6734261426681929e-03 1.2018025870284960e+01 0 0 3
461 2 1.0534530221057281e+01 3.2055046274198702e+00 1.3842641148051102e+01 -4 0 -2
599 2 -2.3373208850888694e+00 -3.0015737686564969e-01 8.2837372003039054e+00 -3 0 1
408 2 1.4611007662396589e+00 7.4709605374293941e-02 9.5772161935470699e+00 -2 0 -2
698 2 9.4271113097484047e+00 8.7408046737007616e+00 2.9232870293859872e+00 2 0 4
182 2 1.6167317515762760e+00 4.8823284821817525e+00 8.7338078357013806e+00 0 0 0
35 2 -9.7129332433816662e-01 3.3343939863140433e+00 5.1509151863450695e+00 -1 0 0
511 1 7.5772129886339128e+00 -1.2662320138585224e+00 1.5311459731306490e+01 1 0 0
619 1 -5.2322482054948765e+00 7.5584165950289322e+00 1.5919475609755642e+01 -3 0 -1
475 1 4.9337335193096834e+00 5.3600910177633114e+00 1.1620534358676494e+01 -1 0 2
68 2 5.9484059786769725e+00 8.1476731965582267e+00 1.7418813225401397e+01 -4 0 -3
526 1 4.5749995963510433e+00 5.8703393736711851e-01 5.5476009411149150e+00 -2 0 0
133 1 4.6573389695871326e+00 3.5212020965859683e+00 9.1662525372583890e+00 1 0 -1
610 1 1.2623715829423819e+01 3.4925527688091096e+00 9.7728326758297825e+00 -1 0 2
675 2 -5.5403513287394537e+00 7.7415934584853776e+00 1.9063755716818264e+01 0 0 -4
963 2 2.2650164885836315e+00 -2.9178845337567250e-01 1.4446352424730323e+01 -3 0 -1
300 2 1.0283644079497225e+01 3.3219574902625304e+00 1.6145314718044126e+01 -3 0 -2
889 1 1.1056823209823223e+01 -1.2852124327529957e-01 6.5218338836826932e+00 -1 0 0
782 2 -6.3131008458598969e-01 4.2006911810762384e+00 2.0653713727564540e+00 -2 0 -2
690 2 -7.6668655991592405e-01 2.3480453427662065e+00 7.0845611043976069e+00 -2 0 0
6 2 3.3831165747551779e+00 8.7520595690791794e+00 8.2560947289365476e+00 1 0 0
728 2 8.3567691647093980e+00 6.3024900137435234e+00 1.2512851102296381e+01 0 0 1
113 2 7.2752257014186403e+00 3.7332412776194639e+00 1.2613655598577031e+01 -2 0 -1
502 1 5.2329514252409410e+00 9.2797893437082513e-01 8.0343977975438694e+00 0 0 -1
604 1 1.5543142285772898e+01 2.4579007033358677e+00 3.7919297496835398e+00 0 0 2
222 2 -8.4508546809497087e-01 8.3737060582030836e+00 1.6166317102576780e+01 -2 0 -3
711 2 2.5726627953291041e+00 9.0942445320423939e+00 1.3064299611525453e+01 -3 0 -2
67 1 5.3542401335909071e+00 7.6519303628756958e+00 1.6804307549151986e+01 -4 0 -3
727 1 8.2279939253289403e+00 7.2238551847482562e+00 1.2868877368270313e+01 0 0 1
114 2 5.9733834514609043e+00 2.6786355722434694e+00 1.2170689212950892e+01 -2 0 -1
425 2 1.3228198424483478e+01 3.8532392687086530e+00 2.8309846628115660e+00 -2 0 1
544 1 2.0124247667416588e+00 9.1567984977746297e-01 1.1049349055168690e+01 2 0 1
713 2 -1.2673232376061967e+00 -7.4915270059169192e-01 1.2092724084799483e+01 0 0 3
1001 2 9.5420402750443429e+00 1.3570968692308178e+00 2.3706971161232624e+00 -1 0 1
496 1 6.2324761456443198e+00 4.2495952186104544e+00 6.8899963385272516e+00 0 0 1
980 2 8.7305660637133862e+00 8.0816271211512785e+00 1.1548025646071945e+01 -2 0 0
337 1 1.9950944134061925e+00 5.0581226654417080e+00 4.4285124296468759e+00 -1 0 -1
184 1 5.4955581822978194e+00 -4.8707202225750745e-01 1.2257173993774129e-01 -4 0 -6
221 2 -9.6255037499172147e-01 7.2456373289747571e+00 1.7177926344769585e+01 -2 0 -3
844 1 7.2752136684815625e+00 -4.9172730074139304e-01 1.1968381508466091e+01 1 0 1
583 1 1.2399046592605426e+01 5.4658975197782027e+00 1.2090134334986589e+01 -5 0 -4
584 2 1.1965906343699553e+01 6.2236919541944493e+00 1.1620506673290159e+01 -5 0 -4
641 2 -2.8792142944497683e+00 4.7318958628563887e+00 1.1007670512244321e+01 4 0 -1
110 2 1.8339303973281327e+00 6.6780774533131471e-01 1.7584442703482935e+01 1 0 -4
714 2 -1.4621671863768366e+00 5.5670839390683291e-01 1.1386953930041598e+01 0 0 3
47 2 8.3323423016941245e+00 8.0179643191654062e+00 6.5262900143494527e+00 -3 0 0
207 2 4.9346977766282230e+00 6.8414084622185563e+00 8.6321118078926151e+00 3 0 0
808 1 8.2324741105374084e+00 7.0666733646966726e+00 8.3866794229792951e+00 -4 0 -1
763 1 -4.4281652945449741e+00 1.0137389236602136e+01 1.4997743933404900e+01 -3 0 -3
577 1 2.3692247588198434e+00 3.0102243326204103e+00 1.3997402956571133e+01 0 0 0
766 1 1.1584074661808488e+01 9.9960663658436619e+00 1.3134783053018124e+01 -4 0 -1
1000 1 8.6154728986915607e+00 1.1539497068355424e+00 2.1752062864737245e+00 -1 0 1
294 2 -8.1263125739463904e-01 2.6528626767542174e+00 1.0733157729050333e+01 1 0 -3
390 2 1.3900381258500749e+01 6.0587773908572196e-01 5.2792365331289108e+00 -1 0 0
697 1 8.7864481468562996e+00 8.7708739804902258e+00 2.2082378451153701e+00 2 0 4
521 2 8.1328916638365722e+00 3.7328732973845868e-01 8.5482237741371172e+00 -5 0 -2
813 2 6.8700859708983018e+00 5.5039878462248781e+00 1.5577214937640338e+01 -2 0 -1
912 2 1.1515780884653271e+01 6.3561411718852034e-01 3.4346499816690144e+00 -2 0 1
320 2 1.0378732793699751e+01 -8.5409076437421294e-01 1.3642727943557899e+01 -4 0 -3
949 1 -3.9112947612040569e+00 -1.4666627967715185e-01 1.6654090330191497e+01 -1 0 1
771 2 -2.6782565985339728e+00 5.9330209472304425e+00 8.7326243782622104e+00 1 0 -3
493 1 1.9131788972019548e-01 1.0052024234779564e+01 1.0661155014937377e+01 -3 0 -2
809 2 8.9904397893627834e+00 6.5521090597894922e+00 8.7275882873822805e+00 -4 0 -1
866 2 -2.3380168228619378e+00 4.9539904225974185e+00 1.7090137749816403e+01 -3 0 -1
94 1 1.1233207216800791e+01 6.4553690909631927e+00 2.8184206888461198e+00 -2 0 -1
225 2 3.2139749986467394e+00 6.5156942339718409e+00 8.4145976212190887e-01 -2 0 -1
770 2 -2.1406616766138016e+00 4.5821742434868735e+00 7.9528097974786220e+00 1 0 -3
123 2 5.5863730093622905e+00 6.3477902820871446e+00 1.3892055499516188e+01 -2 0 -1
440 2 1.1085225337141065e+01 8.4467482866174528e+00 1.3719117259355755e+01 -3 0 -2
383 2 1.5111922645907605e+01 5.7813796184891233e+00 4.5873048311086589e-01 -2 0 1
979 1 9.1432002427857704e+00 8.5101369439302825e+00 1.0706545610705476e+01 -2 0 0
499 1 -6.1870373003362200e-01 9.8726510273986312e-01 1.4274198524082145e+01 1 0 1
910 1 1.1339509906045921e+01 1.4998947230169786e+00 3.1536588013215443e+00 -2 0 1
546 2 1.8612394877232905e+00 4.3100100092784799e-01 1.1829707442662356e+01 2 0 1
275 2 8.7572452258564972e+00 -1.3162464227219806e-01 1.9053678958772785e+01 2 0 -1
729 2 8.9725432657752791e+00 7.3818037916298103e+00 1.3533943780946316e+01 0 0 1
612 2 1.1926512096072445e+01 4.0143136857058170e+00 9.3049804479399025e+00 -1 0 1
674 2 1.0871276293410489e+01 7.8366929514875387e+00 1.8472038602977740e+01 -1 0 -4
121 1 5.5641706398618354e+00 7.2189958692194747e+00 1.3458530699394768e+01 -2 0 -1
274 1 7.8303258380817455e+00 -7.3270318795103151e-02 1.8956906732663768e+01 2 0 -1
424 1 1.3288467373128112e+01 2.9075559593184979e+00 2.5174211216203468e+00 -2 0 1
811 1 7.3039251668238396e+00 6.0484904607962013e+00 1.6282573671740224e+01 -2 0 -1