LAMMPS data file via write_data, version 3 Mar 2020, timestep = 1000000

1008 atoms
2 atom types

2.3104295277371278e-01 1.8168512047222002e+01 xlo xhi
5.6134794363753571e-02 2.2514254205631442e+01 ylo yhi
2.1181110441550999e-01 1.9293904895579118e+01 zlo zhi
1.6441586769072208e-01 -6.6669058606641913e+00 1.5296343220248993e-02 xy xz yz

Masses

1 16
2 2

Atoms # atomic

1 1 6.7067689143758749e+00 1.3228400491335872e+00 5.0222905532114002e+00 0 0 0
521 2 2.1319218040207111e+00 5.3743780120843754e+00 9.1557579632524106e+00 0 0 0
3 2 6.7573693658296001e+00 1.7772787960924821e+00 4.1773238819094827e+00 0 0 0
4 1 4.2141275510733935e+00 1.1962578452857062e+00 5.1847512505958324e+00 0 0 0
5 2 5.1841961496581392e+00 1.1238411657244574e+00 5.1970718060544661e+00 0 0 0
6 2 4.0182362582650217e+00 1.5919104132719102e+00 6.0366820906320484e+00 0 0 0
7 1 -6.9014507812763770e-01 6.4106996143027519e+00 5.1343889238132574e+00 0 0 0
8 2 -8.3715321124364994e-01 6.0712551930115097e+00 5.9839939467134418e+00 0 0 0
9 2 -1.1388218346824610e+00 7.2500415066466450e+00 5.0500739417960840e+00 0 0 0
10 1 2.2744701041241724e+00 6.4040280530278269e+00 5.1612409741576757e+00 0 0 0
11 2 1.2917198132218188e+00 6.5979292751568250e+00 5.1888881592784246e+00 0 0 0
12 2 2.8815589325297788e+00 7.1715450014757627e+00 5.1915004617336749e+00 0 0 0
222 2 3.1358437686265317e+00 1.0854073317663598e+01 2.5268375827055740e+00 0 0 0
14 2 5.0250776527181955e+00 5.4807771639646479e+00 8.8525516965106128e+00 0 0 0
156 2 1.1824209915053167e+01 6.6976597208566546e-01 2.2985869055227832e+00 0 0 0
304 1 1.3074849292755863e+01 1.0843334828661481e+01 3.8696325570974865e+00 0 0 0
18 2 5.8428587111628367e+00 4.9562534877505859e+00 1.1789279149223328e+00 0 0 0
106 1 9.4922499211746825e+00 2.7544009255186088e+00 9.5308891724003537e+00 0 0 0
146 2 1.7554136791844989e+01 6.0567514901050625e+00 1.2474481141276716e+00 0 0 0
21 2 1.0526204793421523e+00 2.3553958681633285e+00 1.4025159665643687e+00 0 0 0
583 1 3.5458731631396643e+00 1.5731025638192846e+00 9.6643651212420352e+00 0 0 0
306 2 1.3812467489050640e+01 1.0658227306714128e+01 3.2692641139182603e+00 0 0 0
83 2 2.2783234584157839e+00 5.6111621374185692e+00 8.2316688616776301e-01 0 0 0
25 1 4.7458412662027438e+00 6.4041291611212330e+00 7.2312383943581127e+00 0 0 0
26 2 5.3059556741087750e+00 7.2027152507620746e+00 7.4872963138507656e+00 0 0 0
27 2 3.8089843534926970e+00 6.7175195640427008e+00 7.4319504577729516e+00 0 0 0
28 1 6.0140741144661352e+00 6.4791896267327509e+00 2.8205967241824883e+00 0 0 0
29 2 5.8917282496710728e+00 6.2175092693451344e+00 3.7479242604591323e+00 0 0 0
30 2 5.3688547138445477e+00 7.1402452075905929e+00 2.5551024031598373e+00 0 0 0
31 1 1.4234703509124857e+00 1.2683601325423191e+00 2.7551467165470025e+00 0 0 0
32 2 2.4203549456040299e+00 1.0719907676869933e+00 2.6750397600766722e+00 0 0 0
33 2 1.3453251598469400e+00 1.8118745126304436e+00 3.6450959240961738e+00 0 0 0
34 1 4.2520944033462671e-01 9.6339372884610952e-01 7.3967703310267252e+00 0 0 0
154 1 1.2642926070410944e+01 4.5396149748822734e-01 1.8024852908842115e+00 0 0 0
36 2 5.9223870452558636e-01 1.5866425536810653e+00 8.1711685253137532e+00 0 0 0
37 1 6.5609824159765138e+00 2.7229592072746458e+00 2.5856052508584866e+00 0 0 0
38 2 5.6030490660143375e+00 2.9039366554125161e+00 2.8252209394782803e+00 0 0 0
39 2 7.0925978557021185e+00 3.4980983750333827e+00 2.8906556201356706e+00 0 0 0
40 1 4.0210497822026205e+00 2.7783624445509578e+00 7.2844599643590859e+00 0 0 0
41 2 4.8058359464356339e+00 3.2430073479623420e+00 7.6313879342708644e+00 0 0 0
42 2 3.2770828808254229e+00 3.4254333372568739e+00 7.1273179949142698e+00 0 0 0
43 1 -5.1830968822577206e-01 4.8318360150031721e+00 7.3874838542977495e+00 0 0 0
44 2 -1.1649070597436975e+00 4.1177210290088704e+00 7.3653203628788297e+00 0 0 0
45 2 -6.4584450557283457e-01 5.3633048391913576e+00 8.2275903985719214e+00 0 0 0
46 1 1.9427810742617284e+00 5.1649266844855397e+00 2.8378161976896696e+00 0 0 0
47 2 9.8485525984535982e-01 5.1062638991994707e+00 2.7471352325867513e+00 0 0 0
48 2 2.1159035089713774e+00 5.6023401821809591e+00 3.6742291064166737e+00 0 0 0
49 1 6.6121692823485141e+00 3.5054583513689117e+00 6.7043450255308503e+00 0 0 0
50 2 6.2776550645855211e+00 4.1283755296723577e+00 6.0134781918019122e+00 0 0 0
51 2 6.6787543526165045e+00 2.6622008176460410e+00 6.2149641894464445e+00 0 0 0
52 1 4.0326437761142175e+00 3.4746855175922020e+00 3.4933956681201623e+00 0 0 0
53 2 3.1583786073369211e+00 3.8602595601057539e+00 3.2411596976003176e+00 0 0 0
54 2 3.9353465395961189e+00 2.5670612195662015e+00 3.8401735415211093e+00 0 0 0
55 1 -5.5947651267236964e-01 4.1888491216369701e+00 3.3582937149833292e+00 0 0 0
56 2 -6.5261344178408753e-01 4.9851697125994692e+00 3.9162199399032365e+00 0 0 0
57 2 -2.0783250744042148e-01 3.5590663208691056e+00 3.9973187110002302e+00 0 0 0
58 1 1.9025545840287852e+00 4.3232294390899257e+00 6.6190993281750865e+00 0 0 0
59 2 2.2796284587550582e+00 5.0987537322298921e+00 6.1627458965067019e+00 0 0 0
60 2 1.0764927026409672e+00 4.6435224102379200e+00 7.0625902843046209e+00 0 0 0
61 1 8.5648963789559911e+00 6.7626293226457985e+00 1.8817205942514661e+00 0 0 0
62 2 7.7870431659032624e+00 6.5937715973223758e+00 2.3675689888644271e+00 0 0 0
63 2 8.6151202196006516e+00 6.1048347730507828e+00 1.1372617912523268e+00 0 0 0
64 1 2.2812723523286862e+00 7.0787397453502114e+00 8.3903147617399334e+00 0 0 0
65 2 1.4086517395538465e+00 7.5075796079083545e+00 8.2192918465910498e+00 0 0 0
66 2 2.6360884233073318e+00 7.6772090744641170e+00 9.0509984801087278e+00 0 0 0
302 2 1.4943260794280754e+01 1.0676719246998218e+01 6.8277528192425816e+00 0 0 0
68 2 -2.3797925228027519e+00 1.3766879939374590e+00 8.5850701016788964e+00 0 0 0
163 1 1.5952553290156954e+01 1.3429748080714641e+00 3.3626542849068919e-01 0 0 0
72 2 4.1029358016352893e+00 1.5272950036890163e+00 1.2560496601525073e+00 0 0 0
73 1 5.3889150255649891e+00 5.1949056475134023e+00 5.0385925534180940e+00 0 0 0
74 2 4.8673003289630374e+00 5.7268384078734549e+00 5.7154873585104671e+00 0 0 0
75 2 4.7587110126338787e+00 4.6140621999578117e+00 4.5791789569008206e+00 0 0 0
76 1 8.2461944821290012e-01 2.3230549348706999e+00 4.9820152226005066e+00 0 0 0
77 2 5.8016465968804076e-01 1.7078465231804316e+00 5.7004658079381034e+00 0 0 0
78 2 1.2508143992534031e+00 3.0639813658162596e+00 5.4687473161679732e+00 0 0 0
584 2 3.1169597050864346e+00 7.2911967879910566e-01 9.4484025822108482e+00 0 0 0
587 2 -1.6577539562076464e+00 6.5652096846946808e+00 9.2929497862239270e+00 0 0 0
668 2 1.2895617051706481e+01 1.9776654528696860e+00 9.1457845934092301e+00 0 0 0
85 1 1.5462315105653278e+01 9.7919931305887020e-01 4.7674794520439470e+00 0 0 0
87 2 1.5422356399638867e+01 1.4954129388302824e+00 3.9256513560566861e+00 0 0 0
88 1 1.2827888394339341e+01 8.2425982790110575e-01 5.2020930461653307e+00 0 0 0
89 2 1.2657379226130811e+01 1.6178342236656613e+00 4.6664025959777975e+00 0 0 0
90 2 1.3800353831641047e+01 7.3347645725668897e-01 5.0995513875963274e+00 0 0 0
91 1 8.1888813089262591e+00 6.6095761607857666e+00 5.6136533455755782e+00 0 0 0
92 2 7.8011408671295612e+00 5.9549662853337573e+00 5.0228988374760233e+00 0 0 0
93 2 9.1512847876388452e+00 6.5058957742775148e+00 5.3514371668079592e+00 0 0 0
94 1 1.0825291547817796e+01 6.2915100241517337e+00 4.8777789203235908e+00 0 0 0
95 2 1.1322178460638820e+01 7.0836454313078185e+00 4.9265632357525879e+00 0 0 0
96 2 1.1285872661581591e+01 5.5615980956715934e+00 5.3486652501031680e+00 0 0 0
219 2 5.9381373133584248e+00 1.0846578227850580e+01 6.9374867855424140e+00 0 0 0
67 1 -2.1259344619255045e+00 5.2324529422963029e-01 8.1278682679383305e+00 0 0 0
117 2 9.4756477846280625e+00 6.5737724324268754e-01 2.5133502524574420e+00 0 0 0
101 2 1.4300744507024627e+01 5.2298878155338731e+00 1.4141379358799355e+00 0 0 0
293 2 1.2609537698092314e+01 1.0913771097259881e+01 7.0646880794662215e+00 0 0 0
485 2 1.0661482910525262e+01 1.5214818898798277e-01 7.6692059402723745e+00 0 0 0
19 1 1.1386324732019482e+00 2.8058861849707384e+00 5.4944308072990578e-01 0 0 0
224 2 -1.0009582308541121e-01 1.0895765512229998e+01 4.0279439562153652e+00 0 0 0
109 1 1.3514307840647557e+01 6.3816004775496529e+00 7.5731053284117964e+00 0 0 0
110 2 1.3696082417202287e+01 5.7334878561926823e+00 8.2575793212554789e+00 0 0 0
111 2 1.2607212434967099e+01 6.5669661634611467e+00 7.8570572333200888e+00 0 0 0
112 1 1.4689929839270702e+01 6.2999535374670099e+00 2.7463317583579938e+00 0 0 0
113 2 1.4293607150835154e+01 7.1632968096712588e+00 2.4446496232175332e+00 0 0 0
114 2 1.5630264763378783e+01 6.4104593388614068e+00 2.4484728225390233e+00 0 0 0
115 1 1.0127306660231781e+01 1.3850333142061142e+00 2.6316289056486144e+00 0 0 0
116 2 9.9329649874521060e+00 1.9206301125631178e+00 1.8261317480333936e+00 0 0 0
585 2 3.6810261280970660e+00 1.9969247016694880e+00 8.7885244622713614e+00 0 0 0
118 1 9.1311665457229161e+00 1.1356348248834636e+00 7.1710884458281630e+00 0 0 0
119 2 9.2690954720817551e+00 1.7413565012281902e+00 7.9507462406374465e+00 0 0 0
120 2 9.0855359352143417e+00 1.5972711962689419e+00 6.2952283471076065e+00 0 0 0
121 1 1.5371959376915182e+01 2.5304609869804660e+00 2.5809391454349151e+00 0 0 0
122 2 1.6059855473883612e+01 3.0945113424673405e+00 2.7556965947227532e+00 0 0 0
123 2 1.5618905296318813e+01 2.0956045598402770e+00 1.7404757318959403e+00 0 0 0
124 1 1.3243509193250699e+01 2.5253731811255746e+00 7.5609672992944299e+00 0 0 0
125 2 1.4227162355433233e+01 2.5704572958293612e+00 7.3437895408547549e+00 0 0 0
126 2 1.2797178320803638e+01 1.9925783053059889e+00 6.8424500910389714e+00 0 0 0
127 1 8.8395139771496911e+00 5.1448070297812718e+00 7.6106298339641398e+00 0 0 0
128 2 8.2772930490462251e+00 4.3167729154582428e+00 7.5805610539355985e+00 0 0 0
129 2 8.3592602983705468e+00 5.7486815064402377e+00 7.0289753650051008e+00 0 0 0
130 1 1.0592707271945716e+01 4.8904659389014675e+00 2.2625179325032980e+00 0 0 0
131 2 1.1090829424020152e+01 4.1156230692709483e+00 2.4818162109706230e+00 0 0 0
132 2 1.0366055069852866e+01 5.4043547233839293e+00 3.0904490922716366e+00 0 0 0
134 2 1.5143480063825715e+01 3.6249424202762333e+00 6.0023699762995202e+00 0 0 0
136 1 1.2781190153992062e+01 3.0535777659437335e+00 3.6707565868178502e+00 0 0 0
137 2 1.3216599374352841e+01 3.7569262939863939e+00 4.2227181475973197e+00 0 0 0
138 2 1.3505050473585985e+01 2.5760405395729276e+00 3.1677631788908180e+00 0 0 0
139 1 8.1967353974397579e+00 4.4698999419628374e+00 3.6653218654422086e+00 0 0 0
140 2 8.9142991790941988e+00 4.6469112420179393e+00 2.9980490485766595e+00 0 0 0
141 2 8.6803227502749554e+00 3.6953721282542635e+00 4.1500120866181511e+00 0 0 0
142 1 1.1237927401498109e+01 4.0636219648502552e+00 6.4238369292443593e+00 0 0 0
143 2 1.1742223251368092e+01 3.6798310470785363e+00 7.1192014037991314e+00 0 0 0
144 2 1.0534243072770197e+01 4.5521083576835375e+00 6.9206168130946928e+00 0 0 0
147 2 1.6944974394092331e+01 7.4455686008538029e+00 1.1397735223528445e+00 0 0 0
148 1 1.1062952977585013e+01 6.9783946840697215e+00 8.5857182775641601e+00 0 0 0
149 2 1.1004491126346155e+01 6.0963318258138814e+00 8.9151035558628173e+00 0 0 0
150 2 1.1447909736861975e+01 7.5838958205148304e+00 9.3121289038751929e+00 0 0 0
331 1 1.5893125721531309e+01 8.7657505320057538e+00 4.4263741098014664e-01 0 0 0
108 2 8.5483854585067220e+00 2.8935235430110056e+00 9.7462439718428922e+00 0 0 0
153 2 6.5743184585824830e+00 1.4856874730571288e+00 8.8612833944111298e+00 0 0 0
776 2 7.9525995200412201e+00 1.0711297261947371e+01 9.6966097419264017e+00 0 0 0
155 2 1.2792118243280239e+01 1.2854196234941817e+00 1.2560538034166826e+00 0 0 0
35 2 -5.4520596088523821e-01 8.0993218196464900e-01 7.4249879241126004e+00 0 0 0
157 1 1.4334973020008855e+01 5.0141345594387854e+00 5.2212796667948114e+00 0 0 0
158 2 1.4443132514538890e+01 5.6845453246214790e+00 4.5323391470521850e+00 0 0 0
159 2 1.4031566643890059e+01 5.5027408885111750e+00 5.9715804779733839e+00 0 0 0
160 1 9.6107128530671950e+00 2.5264049395679398e+00 4.8592449948497833e+00 0 0 0
161 2 1.0486706473703276e+01 2.8738945525934985e+00 5.1960041781130073e+00 0 0 0
162 2 9.7909165979629798e+00 1.9759542523542524e+00 4.0611565808492065e+00 0 0 0
254 2 1.5342416513028367e+01 8.8394092399558168e+00 5.4593683657458465e+00 0 0 0
753 2 3.8277790868060211e+00 9.4306776084576853e+00 8.8973068400870261e+00 0 0 0
102 2 1.3825713277855051e+01 4.0542373529163562e+00 5.3009971063688344e-01 0 0 0
169 1 6.4934679073995012e+00 8.5139711075716615e+00 5.0583372138755838e+00 0 0 0
170 2 7.1142778960624895e+00 7.7302899695604932e+00 5.2489337246625984e+00 0 0 0
171 2 6.7239760300583189e+00 9.2481959738844850e+00 5.5941254271078034e+00 0 0 0
172 1 3.7696050706432693e+00 8.7189520641447160e+00 5.0396719821636120e+00 0 0 0
173 2 3.9061333642312848e+00 9.3450657778791282e+00 4.2786078466621298e+00 0 0 0
174 2 4.7253980792460073e+00 8.5008924614671759e+00 5.1928511403862796e+00 0 0 0
16 1 5.8894082455867816e+00 4.8932486283635432e+00 2.3289010930262968e-01 0 0 0
2 2 7.3886317543694409e+00 6.0896244240729025e-01 4.9770866580753124e+00 0 0 0
301 1 1.5770396765289949e+01 1.0649626275194610e+01 6.2874051944218081e+00 0 0 0
192 2 5.2491099012325826e-01 9.9868095443269169e+00 8.6843715034370010e+00 0 0 0
199 1 1.1594513977126373e+00 8.6673874673378517e+00 2.5744017888198751e+00 0 0 0
200 2 1.2137594246932060e+00 9.1612225492878174e+00 1.6708181375473619e+00 0 0 0
201 2 6.0367389785576941e-01 7.7779305854651932e+00 2.3500562805999308e+00 0 0 0
202 1 -1.6551609996071193e-02 8.6789136467946904e+00 7.6352037103276942e+00 0 0 0
203 2 -9.3399333664367323e-01 8.4644406246174242e+00 7.9041510887252837e+00 0 0 0
204 2 -6.2140934528856384e-02 9.0116719983161406e+00 6.7599494602947265e+00 0 0 0
205 1 6.4644752931012563e+00 1.0150254160146769e+01 2.6837262219301241e+00 0 0 0
206 2 6.5930588286634260e+00 9.3650942463778755e+00 3.2549414891496120e+00 0 0 0
207 2 6.7890906605328221e+00 9.8198978465946087e+00 1.7778492257291627e+00 0 0 0
208 1 4.2893998043046473e+00 1.0194803268168815e+01 7.3630778143635256e+00 0 0 0
290 2 1.6170167567030568e+01 1.0785759078698469e+01 2.7407757083972055e+00 0 0 0
210 2 4.0728276136287151e+00 9.5029610359713956e+00 6.6948393114757989e+00 0 0 0
671 2 8.6393020111153600e+00 5.8512315729501418e+00 8.8681269716297901e+00 0 0 0
103 1 1.0043696285557388e+01 2.5784225904524809e+00 2.7857059889900398e-01 0 0 0
221 2 4.6687419015747409e+00 1.0483856523565642e+01 2.6708596520886245e+00 0 0 0
602 2 1.6146375063960967e+01 4.6026457702905397e+00 3.9152370508345830e-01 0 0 0
330 2 9.5359942386708489e+00 1.0718915388690906e+01 4.3982019550211131e+00 0 0 0
235 1 -2.4961812130389971e+00 7.9876369616946850e+00 8.5862813157425322e+00 0 0 0
236 2 -2.7735048245707050e+00 8.7572099201030760e+00 9.1289948876275773e+00 0 0 0
238 1 3.9491312992076280e+00 8.0097095131990681e+00 1.8714013621077612e+00 0 0 0
239 2 3.1105636172700297e+00 8.0812202143672884e+00 2.3825968948344638e+00 0 0 0
240 2 3.9187003906148066e+00 8.8409598518955406e+00 1.3300553682124048e+00 0 0 0
244 1 7.1297178752601975e-01 9.8282867871399588e+00 5.0626829541879976e+00 0 0 0
245 2 8.5108852806472934e-01 9.3537397873738275e+00 4.2392665143785502e+00 0 0 0
246 2 1.5884675135076753e+00 1.0191371461450252e+01 5.3073882999656679e+00 0 0 0
145 1 1.7428933782223428e+01 6.8642896231893786e+00 1.7614652876406796e+00 0 0 0
217 1 6.6978394120828089e+00 1.0964427712027209e+01 6.3953299633332454e+00 0 0 0
253 1 1.5481747575017421e+01 8.2486334440339526e+00 4.6679503367604411e+00 0 0 0
255 2 1.5659831877507607e+01 8.8661032138458644e+00 3.9654424893201079e+00 0 0 0
256 1 1.2494219947780126e+01 8.3106375814708997e+00 5.2601121643384259e+00 0 0 0
257 2 1.3445003427073589e+01 8.0832227305388624e+00 5.3290595552327815e+00 0 0 0
258 2 1.2418911792220085e+01 9.1963987402866305e+00 4.9068059446327439e+00 0 0 0
247 1 7.2122318075033913e+00 9.0996190094161982e+00 3.4697317239542025e-01 0 0 0
272 2 1.0367725733071030e+01 9.9324931448831926e+00 9.7058795398514974e-01 0 0 0
220 1 3.8657604828371444e+00 1.0753717940565295e+01 3.1578518929058124e+00 0 0 0
276 2 9.7532148297689005e+00 1.0111844788036802e+01 8.7155025639879078e+00 0 0 0
283 1 1.0321064785058677e+01 8.7826910356756578e+00 2.3261969762152139e+00 0 0 0
284 2 1.0224253520125384e+01 9.1097207552180439e+00 3.2250521419983360e+00 0 0 0
285 2 9.7513880769563919e+00 7.8867442763397264e+00 2.2554449299863455e+00 0 0 0
286 1 9.6884970476112784e+00 9.0922481442458754e+00 7.3206583330612718e+00 0 0 0
287 2 1.0291251398520501e+01 8.3744302395633436e+00 7.5832596724125176e+00 0 0 0
288 2 8.7880659379310977e+00 8.7366148922751083e+00 7.3640168719974755e+00 0 0 0
289 1 1.5450651358618934e+01 1.0160148479544088e+01 2.5763993767091455e+00 0 0 0
165 2 1.6405611558711247e+01 6.4272234741194190e-01 8.5082446158695746e-01 0 0 0
291 2 1.5646207405719462e+01 9.6356149973048879e+00 1.8079252656882037e+00 0 0 0
292 1 1.3035877915378304e+01 1.0104514000864247e+01 7.3907880319538481e+00 0 0 0
84 2 3.3530658424823159e+00 6.8156623272411982e+00 6.3645297498386899e-01 0 0 0
294 2 1.2732032893981456e+01 9.4629991053384916e+00 6.7622120407292519e+00 0 0 0
836 2 1.2762001815468510e+01 9.3258908630604935e+00 9.0952039389598767e+00 0 0 0
69 2 1.5000055041311924e+01 9.6074371436526279e-02 7.7748865874170567e+00 0 0 0
20 2 4.2550632339849781e-01 3.4581887076699651e+00 4.5664112052036743e-01 0 0 0
151 1 6.7985722367947634e+00 7.5378490906884621e-01 8.2545888328322548e+00 0 0 0
319 1 6.8390589909211092e+00 7.8586472831762233e+00 8.0031540936961143e+00 0 0 0
320 2 6.7570990625605214e+00 8.7014919533311943e+00 8.4771307827462454e+00 0 0 0
321 2 7.2138062139314698e+00 7.2661207894969726e+00 8.7027400904724299e+00 0 0 0
322 1 1.3066593727334201e+01 8.0808045337916106e+00 1.6890512738953962e+00 0 0 0
323 2 1.2397347196980109e+01 8.3832955537450626e+00 2.3699790791838460e+00 0 0 0
324 2 1.2679959714014148e+01 7.3406585763250076e+00 1.1786995164994254e+00 0 0 0
328 1 1.0152436075349499e+01 1.0072473170155927e+01 4.8431365565351614e+00 0 0 0
329 2 9.7008738226662317e+00 9.7060700745586672e+00 5.5884860920216672e+00 0 0 0
780 2 1.3068175526804033e+01 9.4636464383938641e+00 6.2673156769940319e-01 0 0 0
401 2 2.0160798364513139e+00 6.2532395344815292e-02 7.5221835526585563e+00 0 0 0
86 2 1.6234714676202984e+01 3.5346311485665288e-01 4.8741902188552366e+00 0 0 0
100 1 1.4461013722884045e+01 4.8072861419402750e+00 5.4787111240499775e-01 0 0 0
70 1 3.9001792571020406e+00 7.2253357816560848e-01 1.8431296878047247e+00 0 0 0
80 2 6.6893887238499667e+00 1.8209671047945966e+00 1.0790998150964475e+00 0 0 0
237 2 1.4608633425454357e+01 7.7018517283238337e+00 8.2201840929329499e+00 0 0 0
135 2 1.6049521585397017e+01 2.3495752464448145e+00 6.0575089188568132e+00 0 0 0
751 1 3.5873013725104377e+00 8.9053383527637600e+00 9.6847716645051634e+00 0 0 0
133 1 1.5672715460891427e+01 3.0636223840260102e+00 6.5865043746128107e+00 0 0 0
190 1 7.2608224942391741e-01 1.0460552472136250e+01 9.5530281786515250e+00 0 0 0
152 2 7.4395911515763729e+00 9.7124111975947125e-01 7.5926896439652198e+00 0 0 0
167 2 1.1163540429138138e+01 5.7250720981126486e+00 8.6063217121316971e-01 0 0 0
486 2 1.1523698699738635e+01 4.7104742271804984e-01 8.9210408482700299e+00 0 0 0
22 1 5.5756602363823893e-01 2.6794991816236182e+00 9.6148195620767876e+00 0 0 0
187 1 1.3698012229986736e+00 1.0143994957681606e+01 2.7550747603410392e-01 0 0 0
209 2 3.7384734158106956e+00 1.0948264885442780e+01 7.1464996502669962e+00 0 0 0
586 1 -8.6284057603839326e-01 6.0325630827419356e+00 9.6021409601293595e+00 0 0 0
309 2 7.7341612547272494e+00 1.1118149902191341e+01 3.2682181561660912e+00 0 0 0
79 1 7.0606806607565478e+00 1.3490741698925119e+00 3.0824489730098686e-01 0 0 1
248 2 7.8301228199295965e+00 8.3550139202945850e+00 5.7049535529172246e-01 0 0 0
311 2 1.0800764874478515e+01 1.1181084024680242e+01 5.9162851068784619e+00 0 0 0
274 1 9.7230033271737817e+00 1.0576806955522711e+01 9.6117769565423341e+00 0 0 0
13 1 5.0397509480105960e+00 5.0698515710026983e+00 9.7413165581972816e+00 0 0 0
104 2 9.3695066081282210e+00 3.3347674531246283e+00 2.2802482966918802e-01 0 0 1
620 2 6.9455831724702248e+00 3.9139882554917615e-01 1.1508290026253846e+01 0 0 0
601 1 1.0465030425490855e+01 4.6690177050008899e+00 1.9198544846628018e+01 0 0 0
332 2 9.6549412346547889e+00 9.2601074336024869e+00 1.8745494877552993e+01 0 0 0
275 2 1.0043867213629168e+01 9.8196959720555181e+00 1.0165949424425055e+01 0 0 0
164 2 8.5521911797584025e+00 9.6616483198732339e-01 1.8936555215853748e+01 0 0 0
669 2 1.2166561473437785e+01 1.8686328442953302e+00 1.0547351312032420e+01 0 0 0
603 2 1.0469885758509779e+01 4.7031249770816688e+00 1.8224891571562381e+01 0 0 0
249 2 9.5483414534234790e-01 9.6460874192581301e+00 1.8690035547256191e+01 0 0 0
191 2 5.5719813981343513e-01 9.7971782672501853e+00 1.0269535847890824e+01 0 0 0
536 2 -2.6227943142437793e+00 4.8783264530160481e-01 1.1863790563285628e+01 0 0 0
168 2 4.3202436499318866e+00 6.6871873142873062e+00 1.8843404916488417e+01 0 0 0
903 2 4.7426655538142608e+00 4.6010964738145677e-01 1.0334236936259353e+01 0 0 0
672 2 8.8801765382071576e+00 6.8215900281622224e+00 1.0161840309827715e+01 0 0 0
623 2 4.7679325898486056e+00 9.5718053354638832e-01 1.6771192102454474e+01 0 0 0
824 2 2.5796128666459053e+00 7.5996577337998650e+00 1.7419913404274190e+01 0 0 0
834 2 6.0402291102166057e+00 1.0637697739791912e+01 1.4380039374279763e+01 0 0 0
333 2 8.6490163393971464e+00 8.1212728329147854e+00 1.9083636938748100e+01 0 0 0
656 2 2.6927457131945918e+00 3.3720061237294124e-01 1.6673118126825880e+01 0 1 0
505 1 2.9447914135069935e+00 1.2715817346763765e+00 1.4474676728046729e+01 0 0 0
506 2 3.2759836619030578e+00 2.0401121921323595e+00 1.5040561764533205e+01 0 0 0
507 2 3.6211137252080539e+00 5.7617282275992610e-01 1.4533743387207190e+01 0 0 0
508 1 9.6955959306070483e-02 1.3572943682162815e+00 1.4649599364135076e+01 0 0 0
23 2 1.0211246082784244e+00 3.4675983518449032e+00 9.8236640159169806e+00 0 0 0
510 2 1.0232910420777355e+00 1.0259597447336137e+00 1.4620966942311908e+01 0 0 0
511 1 -4.1369514678098582e+00 6.2332086125923771e+00 1.4652369583425225e+01 0 0 0
512 2 -4.3494915602043278e+00 5.3988198147156368e+00 1.4271340776115323e+01 0 0 0
513 2 -3.8908699416212915e+00 6.0206307505261334e+00 1.5606152088550177e+01 0 0 0
514 1 -1.4896255021169340e+00 6.6672724887640404e+00 1.4114207908320250e+01 0 0 0
515 2 -1.3909866678399814e+00 5.8105449144987418e+00 1.4603653712816390e+01 0 0 0
516 2 -2.4212578220284255e+00 6.8523240503995115e+00 1.4105499366092621e+01 0 0 0
728 2 -3.4337529763275607e+00 1.1175974840091996e+01 1.3747775846450955e+01 0 0 0
519 2 1.9166590640872156e+00 5.3215039491440352e+00 1.8177320333139580e+01 0 0 0
823 1 3.4060104714986963e+00 7.9412289931078988e+00 1.7806233139584634e+01 0 0 0
522 2 2.0897099317439771e+00 5.3777003885370362e+00 1.0634072668107761e+01 0 0 0
809 2 1.0224420986233405e+01 1.0147659042962097e+01 1.2785257725841351e+01 0 0 0
778 1 6.2907622032925312e+00 1.0171782842069002e+01 1.8976019335579661e+01 0 0 0
525 2 -2.3798763714102571e+00 2.2442131745229883e+00 1.0586121973313345e+01 0 0 0
723 2 4.0701499475912728e+00 1.1204615946376833e+01 1.6442415015213161e+01 0 0 0
527 2 -2.8089746788315084e+00 2.3508772060622714e+00 1.8230869000730273e+01 0 0 0
529 1 1.2739920590570168e+00 6.4116020305244765e+00 1.6916324332020615e+01 0 0 0
530 2 1.4646391423643186e+00 6.3076160904461434e+00 1.5992179044661569e+01 0 0 0
531 2 4.2693267255469269e-01 6.8332851181806218e+00 1.7182035446915361e+01 0 0 0
532 1 2.4001131545866441e+00 6.2997585549088466e+00 1.2028159201219292e+01 0 0 0
533 2 3.3938814704029756e+00 6.4104535146057877e+00 1.2085026728273363e+01 0 0 0
534 2 2.1387103826677212e+00 6.0477267249162203e+00 1.3001306917725600e+01 0 0 0
535 1 -2.1202373152361966e+00 1.3390283695021856e+00 1.2035195991528294e+01 0 0 0
608 2 6.3528857091716073e+00 3.7206968919976280e+00 9.9803840771939587e+00 0 0 0
537 2 -1.1586544232890201e+00 1.1578575311376553e+00 1.2034930896867539e+01 0 0 0
538 1 -3.0410455835422319e+00 1.3173220705622031e+00 1.7025441382129131e+01 0 0 0
539 2 -4.0113419104703363e+00 1.0404264850275380e+00 1.7207744240398352e+01 0 0 0
540 2 -2.9942893076752166e+00 1.6174054302816629e+00 1.6078380804755540e+01 0 0 0
541 1 3.0563568701146044e+00 2.9476651368760365e+00 1.2147193378283426e+01 0 0 0
542 2 3.2588144124402163e+00 2.1947297161697898e+00 1.2792671833011013e+01 0 0 0
543 2 3.2859916377217564e+00 2.6522465463905949e+00 1.1250088260849731e+01 0 0 0
544 1 9.7609749140567459e-01 2.5208571975591556e+00 1.7047220574313751e+01 0 0 0
545 2 6.5532664796860374e-01 2.1722553390877648e+00 1.7873511711936267e+01 0 0 0
546 2 6.3560606273945108e-01 1.9439919467924736e+00 1.6299112671690114e+01 0 0 0
547 1 -3.3925367596057745e+00 5.1339741007787634e+00 1.6880075739889353e+01 0 0 0
548 2 -3.9878609433887933e+00 4.3547708259406415e+00 1.6746449092710535e+01 0 0 0
549 2 -3.4321915609264217e+00 5.4174774412745528e+00 1.7799879067166366e+01 0 0 0
550 1 -1.4327443128763089e+00 4.9818257170119997e+00 1.1874797773199349e+01 0 0 0
551 2 -9.0527289144954848e-01 4.1985384488013509e+00 1.1990052895105462e+01 0 0 0
552 2 -1.4764536715521515e+00 5.5499080315119915e+00 1.2603733916078349e+01 0 0 0
553 1 3.1589977686695550e+00 3.6342049480948857e+00 1.5847473983554377e+01 0 0 0
554 2 2.3614121104894874e+00 3.2393144190335517e+00 1.6303363400556869e+01 0 0 0
555 2 3.9425851446591729e+00 3.8723253723163076e+00 1.6372644962141958e+01 0 0 0
556 1 4.8282204542459528e-01 3.3661548935311063e+00 1.2955251767059281e+01 0 0 0
557 2 1.3250276430185997e+00 3.0002151442934846e+00 1.2512150944590989e+01 0 0 0
558 2 2.2344086402159125e-01 2.5994736828073108e+00 1.3507597582195146e+01 0 0 0
559 1 1.3684376086397311e+01 4.1454640011667649e+00 1.2849863379571067e+01 -1 0 0
560 2 -3.6972716629158917e+00 4.5471323213282071e+00 1.2220231422500902e+01 0 0 0
561 2 -3.7505940681729149e+00 3.4552662287207601e+00 1.3434698581219722e+01 0 0 0
562 1 -1.3631243942838629e+00 4.3203779536347104e+00 1.5472877024781651e+01 0 0 0
563 2 -5.8860163251687680e-01 3.7915329564251432e+00 1.5638315969763148e+01 0 0 0
564 2 -1.8171376896363824e+00 4.5474470643767608e+00 1.6308398335722778e+01 0 0 0
565 1 5.0363276626520763e+00 7.1625482221026768e+00 1.1498179030717981e+01 0 0 0
566 2 4.4620118528677004e+00 7.6937358261458755e+00 1.0932296227381860e+01 0 0 0
567 2 5.2561820626101303e+00 6.4235882308864944e+00 1.0896411477942298e+01 0 0 0
568 1 -1.0138912923539749e+00 7.3364395876472166e+00 1.7849356081361069e+01 0 0 0
569 2 -1.0821780584767824e+00 6.5495458636447905e+00 1.8390880443432334e+01 0 0 0
570 2 -8.1469631517973351e-01 8.1109875323031222e+00 1.8385402804763572e+01 0 0 0
835 1 1.2540549697575187e+01 8.7502498134786197e+00 9.8639363680141905e+00 0 0 0
572 2 -5.8317283337851160e+00 1.2944882599232375e+00 1.8378104709253744e+01 0 0 0
721 1 3.4034928645544786e+00 1.0665101871626597e+01 1.5886678451741536e+01 0 0 0
775 1 7.0756114765838047e+00 1.0349026981590187e+01 9.8331322517407855e+00 0 0 0
808 1 9.5618687934999116e+00 1.0541620843667559e+01 1.3310680782416194e+01 0 0 0
577 1 1.8171551942882109e+00 5.3325916264037421e+00 1.4403539347426717e+01 0 0 0
578 2 1.2208953529443090e+00 4.6888160347884771e+00 1.3992524818988322e+01 0 0 0
579 2 2.4177577010786351e+00 4.7340046757541181e+00 1.4955907012476665e+01 0 0 0
580 1 -2.9943284539010859e+00 2.4173834264703435e+00 1.4406822406578661e+01 0 0 0
581 2 -2.4542035276139926e+00 1.8257735702650568e+00 1.3826058869494496e+01 0 0 0
582 2 -2.4436037756579991e+00 3.1141031587458681e+00 1.4755974460891323e+01 0 0 0
833 2 6.9249079880262245e+00 9.4811434502549368e+00 1.3842803658136337e+01 0 0 0
188 2 -5.4932291164668090e+00 9.4164799407209490e+00 1.8773499427785147e+01 0 0 0
589 1 1.2242479834781236e+01 1.1422402114326033e+00 1.4430444056427527e+01 0 0 0
590 2 1.1226928502682039e+01 9.1184277229804001e-01 1.4448776734365691e+01 0 0 0
591 2 1.2367571136118197e+01 1.8323938729274523e+00 1.5109530653395494e+01 0 0 0
592 1 9.6517809925308473e+00 1.0949691204163245e+00 1.4981591989572140e+01 0 0 0
526 1 -2.8637031949876040e+00 2.9830281063594164e+00 1.8982274011913102e+01 0 0 0
594 2 9.5505722801734194e+00 1.9638893680583638e+00 1.4535356658424659e+01 0 0 0
595 1 4.9838425634290360e+00 6.2896148629419928e+00 1.4838498268353586e+01 0 0 0
596 2 4.8258020030870519e+00 5.8560486583417850e+00 1.5661752260396918e+01 0 0 0
597 2 4.8157428148299930e+00 5.5382026165630167e+00 1.4193125983715730e+01 0 0 0
598 1 7.7107011205344671e+00 6.4676847314946775e+00 1.4619331879342344e+01 0 0 0
599 2 6.7992488539896438e+00 6.3682218498913663e+00 1.4959148269997552e+01 0 0 0
600 2 7.7069708773039425e+00 6.0898297006808937e+00 1.3746042188628715e+01 0 0 0
825 2 3.2840469807160417e+00 8.7618144160403464e+00 1.8323868880183863e+01 0 0 0
691 1 -2.4450443442344363e+00 1.0154269270618224e+01 1.0084899065138007e+01 0 0 0
588 2 -1.1517028721934852e+00 5.5769884770779248e+00 1.0488199965327707e+01 0 0 0
605 2 1.1015110904591616e+01 5.0547735644416276e+00 1.0953906129882663e+01 0 0 0
724 1 7.7603125792862748e-01 1.1027841106395734e+01 1.3080499423324625e+01 0 0 0
722 2 3.1117853934616644e+00 1.1281052422199377e+01 1.5207676490205040e+01 0 0 0
15 2 4.1484036304416625e+00 4.7095964214298389e+00 9.8904183608845901e+00 0 0 0
609 2 6.7776131480809170e+00 2.5637374267133137e+00 1.0883746652203499e+01 0 0 0
832 1 6.7279330353214419e+00 1.0022687413989704e+01 1.4673585867368717e+01 0 0 0
611 2 6.1490997288758322e+00 2.0157921737437166e+00 1.8354946432871227e+01 0 0 0
613 1 1.0347363938342006e+01 6.1320665816457565e+00 1.6668267380302140e+01 0 0 0
614 2 1.0998064601913526e+01 6.6593931164636491e+00 1.7090794818794919e+01 0 0 0
615 2 9.4286342882836713e+00 6.4546248597594191e+00 1.6967038511223965e+01 0 0 0
616 1 1.1174250234409055e+01 6.2378049242744407e+00 1.2384428062131226e+01 0 0 0
617 2 1.1007850670459611e+01 5.6329182107488966e+00 1.3156452791231240e+01 0 0 0