LAMMPS data file via write_data, version 3 Mar 2020, timestep = 31200000

2016 atoms
2 atom types

0.0000000000000000e+00 1.7938907171201301e+01 xlo xhi
-3.6558902035955754e+00 4.8652050180496737e+01 ylo yhi
0.0000000000000000e+00 1.9077190137438066e+01 zlo zhi
5.0855425048547891e-02 -6.6529989465725805e+00 -2.1216974562790369e-02 xy xz yz

Masses

1 16
2 2

Atoms # atomic

1432 1 1.4073392078761842e+00 1.6126799847943625e+00 1.2858170403060781e+01 0 1 -2
1360 1 1.1205382093782237e+00 -1.8429056625835141e+00 4.6311981252762582e+00 -1 1 -2
964 1 1.1278543196839951e+01 4.3026711758821579e+00 1.2023068338864991e+00 -4 0 0
1363 1 6.4616952046711367e+00 2.7710331017576095e-01 1.6833526449082903e+01 1 1 -2
1843 1 8.7999554219400311e-01 1.9861070658988753e+00 6.6647332028032809e+00 1 0 2
406 1 -4.3937305990156919e+00 7.6771462826136183e-01 1.6548555006760864e+01 -2 0 -3
1598 2 1.7843125060367360e+00 -9.4865851759215136e-02 1.2523396533174951e+01 3 0 4
56 2 -8.8791473642350205e-01 5.7919134370123881e+00 1.3750318060546428e+01 -2 0 0
927 2 1.3996061807148097e+00 8.8003226949157067e+00 1.3791512863002971e+01 0 0 1
1690 1 1.0463065620653975e+01 1.9370166953203514e+00 9.2346657954873823e+00 0 1 -1
97 1 9.8275789197188701e-01 -1.9304135396345086e+00 1.9399009945999188e+00 1 0 2
1597 1 2.0170256421985417e+00 -1.0334704938621146e+00 1.2780251779473481e+01 3 0 4
902 2 9.1395843826214893e+00 -3.5693942261906391e+00 1.1354569072258338e+01 2 0 1
1129 1 -3.9692920596084389e+00 8.1141261998868455e+00 1.9050913429891292e+01 1 0 2
855 2 -3.6528095371781046e+00 1.9408574680339683e+00 1.7575781027387308e+01 0 0 -3
1938 2 1.3565362920916780e+01 1.3489627207106034e+00 1.0580318605948602e+01 0 1 -2
191 2 -6.2129910685141976e-01 6.6375436719631207e+00 1.8768783728216945e+01 -1 0 -3
1323 2 7.5997411775942139e+00 9.5920015865296104e-01 7.5072275817305432e+00 0 1 -2
1590 2 1.5019317646757237e+01 -2.3423896420529244e-01 8.2168778787175984e+00 4 0 2
1746 2 4.5186671141974077e-01 2.6200242138045677e+00 1.8166512882078582e+01 -2 1 -3
1937 2 1.3636893933430066e+01 1.2634152666188614e+00 1.2100173961625901e+01 0 1 -2
1995 2 -3.4025823708161669e+00 8.0070894764562688e+00 1.5349592600799959e+01 1 1 0
1373 2 3.5263966112261413e+00 6.4845888096661888e+00 7.9613717183842452e+00 1 1 0
363 2 3.6141536291666680e+00 4.1419976229615507e+00 1.2385748138342345e+01 0 0 0
1896 2 1.3519054545821875e+01 2.2489508710424566e+00 1.7538501216765809e+00 -1 1 -1
1372 1 4.0692336451209501e+00 6.6884542612209685e+00 8.7659353269173383e+00 1 1 0
1013 2 2.6740792714058808e+00 -3.6042078154265433e+00 1.2109118060400496e+01 1 0 0
207 2 7.5645129746486557e+00 -8.1371823987841063e-01 6.5951895274176291e+00 4 0 0
98 2 1.6165874541228253e-01 -1.6085781664189609e+00 1.4719496327336772e+00 1 0 2
554 2 -8.4359479011852190e-01 2.0504265061359757e+00 6.4463837309415890e+00 -2 0 2
1538 2 3.7230783477000085e+00 2.4976692257045991e+00 1.0345423351751908e+01 1 0 1
2003 2 1.5327404033440303e+01 -1.4089059663707508e+00 9.6217975924676669e-01 0 1 -1
388 1 6.0071239220147916e+00 7.6677045350216222e-01 1.2331597341866077e+01 -3 1 1
1988 2 3.1442468687374845e+00 8.7375123489225750e+00 1.5522903770671055e+01 0 1 -2
339 2 4.5304329886247512e+00 3.4870360205956317e+00 5.9933870427272042e+00 -2 0 -2
615 2 -1.6858399829100725e+00 6.7256644577328775e+00 9.9661364171570881e+00 -2 0 1
802 1 6.2098004714142698e+00 -1.1173402747859451e+00 1.4116144041835840e+01 2 0 0
1589 2 -2.0851052816419755e+00 9.9446948134575130e-01 7.7504535622639121e+00 5 0 2
999 2 7.7150663673879807e+00 8.5423091804985773e-01 1.8881056045929174e+01 -2 0 4
994 1 1.2109116699393967e+01 -3.5434672739666460e+00 1.1327961241746689e+01 1 0 2
984 2 -3.7694018385994270e+00 8.3482826607609866e+00 1.1632372468767304e+01 -2 0 -2
256 1 6.6389657475011070e+00 3.2556711649986712e+00 9.6928497562215288e+00 -2 0 1
1434 2 1.6560476987549633e+00 1.7738094284626786e+00 1.3814629578494293e+01 0 1 -2
1039 1 1.6000014490457730e+00 5.8359932261515333e+00 1.3272386972912689e+00 -1 0 -3
1475 2 7.4359462251953357e-01 2.1629342532225992e+00 3.6027628762632991e+00 1 1 0
997 1 1.4556310275500744e+01 1.7568005236695940e+00 2.0545747892038985e-01 -2 0 5
1785 2 3.2084673260048060e+00 8.6791959926322768e+00 1.1544402063059975e+01 1 1 -1
846 2 1.0763533776137033e+01 2.4390416368371453e+00 1.6314762192420748e+01 0 0 -1
830 2 9.8833507042957187e+00 4.1859284869722098e+00 1.4207544935276355e+01 -3 0 -1
1066 1 8.5118732404531237e+00 4.3002502891540919e+00 1.7658927705949516e+00 -1 0 1
793 1 -6.5683177642293256e-02 1.1805235729693742e-01 9.8029648941834733e+00 -2 0 0
1474 1 -1.7517317362455254e-01 2.0354738845841664e+00 3.4244496902892818e+00 1 1 0
1476 2 -4.8920435123536443e-01 1.3762174816548862e+00 4.0315868708158904e+00 1 1 0
1354 1 1.2020774542202735e+01 7.8914419666564228e+00 1.0041878739803799e+01 -1 1 -1
113 2 1.0395443608759264e+01 -1.0863438938216343e+00 1.4914427263882128e+00 2 0 2
136 1 1.4518737335324261e+01 -4.3147865768973448e-01 3.8667353229949715e+00 2 0 1
858 2 1.2756656035358530e+01 6.2686264625857238e+00 7.1506009735144468e-02 -1 0 -2
1567 1 1.0423913847179694e+01 4.6438341255521607e+00 1.0353986656569601e+01 0 0 -1
1006 1 9.5863957175890278e+00 6.7512522944871112e+00 2.1206185276836798e+00 -5 0 -2
539 2 1.5016409737472635e+01 3.7417938173753598e+00 4.3209814705708043e+00 -6 1 -3
1352 2 1.3768710493490817e+00 5.4039463880401524e+00 5.8262589982564288e+00 0 1 -2
1351 1 6.3904500862295288e-01 4.9832451167216849e+00 5.3163066663395009e+00 0 1 -2
1654 1 -3.2050074305080889e+00 4.1011778335166547e+00 1.4588591483489175e+01 -1 0 0
1143 2 4.2979867852938058e+00 3.2027142104654072e-01 1.8886093307499387e+01 3 0 0
695 2 3.3455193581182683e+00 3.5329676316287628e-01 9.7256760657867378e+00 0 0 3
854 2 -2.8482247088069523e+00 2.1561857710564167e+00 1.8840109997159885e+01 0 0 -3
337 1 3.7037414033219624e+00 3.2924050967202989e+00 6.3749993698212668e+00 -2 0 -2
112 1 1.1085945614061494e+01 -3.8283183292162315e-01 1.6833866995097548e+00 2 0 2
528 2 1.3375498640208317e+01 -2.1790165211087791e+00 1.1157972637491117e+01 -1 0 1
1732 1 2.8567079643119326e+00 5.9092872407542529e+00 6.7302679296656320e+00 1 0 1
1939 1 8.0896200078481009e+00 1.3370528212487871e+00 3.7620844262761581e+00 0 1 0
490 1 -9.9878885528248151e-01 2.6902758938949534e+00 9.7199529448285524e+00 4 0 0
1583 2 4.9778089251923427e+00 7.4499624257357802e+00 4.9768109746875835e+00 -2 1 0
1040 2 1.2478973376302571e+00 5.2383537553555009e+00 6.4300642511745831e-01 -1 0 -3
1000 1 9.1954878611171758e+00 -3.2248033648480106e+00 3.6949282948921551e+00 3 0 4
325 1 6.4915488067198002e+00 7.2323581691181342e+00 5.0016581452165978e+00 2 0 -2
1823 2 7.5240511468224804e+00 4.0788882691940174e+00 1.0960113516237094e+01 -3 0 -1
803 2 5.9848354796410952e+00 -6.5286362688868049e-01 1.3248598307450450e+01 2 0 0
1248 2 4.8315190474448233e+00 6.6839450631702846e+00 1.6868730485994092e+01 -3 0 0
801 2 9.3098553271408555e+00 -2.5254967617680819e+00 9.2662271074512716e+00 1 1 -4
1911 2 8.8743317694637405e+00 -3.5356709017954198e+00 1.2893268117016069e+01 2 0 1
246 2 6.3176705638705366e+00 -3.4960755682717575e+00 1.8603913345530600e+01 -3 0 -3
859 1 2.9020889598269406e-01 -1.9764921241937734e+00 1.4743579997709077e+01 -1 0 2
857 2 1.3975837029988005e+01 6.5598134594624202e+00 8.7831488594347373e-01 -1 0 -2
1054 1 6.1393867621055049e+00 -4.8440495688885354e-01 4.0090721068463333e+00 0 0 0
1291 1 9.0195989634288232e+00 -2.1447997964514540e+00 9.5040534387178444e-01 -1 1 1
1835 2 1.0875776796796348e+00 -3.0806235893223652e+00 1.5892130306785976e+01 0 1 0
1736 2 -2.9314567359440109e+00 2.4077360071834049e+00 9.4472091941571072e+00 -1 0 -1
1056 2 6.6942459864909170e+00 3.0623065704820807e-01 3.8382957922474961e+00 0 0 0
896 2 8.5553049751226862e+00 7.3713194081655455e+00 1.5166578333385129e+01 -3 0 -1
885 2 3.0120298769157250e+00 5.8019978383265673e+00 1.7262947595107988e+01 0 0 0
1014 2 2.0196600001058238e+00 -2.3382006768613186e+00 1.1411000425362202e+01 1 0 0
1055 2 6.3952274147163681e+00 -7.8362065162322825e-01 4.8911138897335258e+00 0 0 0
60 2 1.0598952637741847e+01 6.9259079621746160e+00 3.3876231920699400e+00 -2 0 0
1568 2 1.0615817005908500e+01 3.7681218150759941e+00 1.0063476609094010e+01 0 0 -1
35 2 9.5401715061854624e+00 2.0054560009586879e+00 1.3404140085108077e+01 0 0 1
946 1 1.1694177126468357e+01 1.9688993613872254e+00 1.4940376312387519e+01 2 1 7
774 2 8.8850699086875995e-01 6.6294504031461283e+00 1.1653538190491188e+01 3 0 -2
1940 2 8.0815015639230694e+00 1.8816765629388570e+00 4.5696132865823733e+00 0 1 0
1804 1 -1.5575370836393325e+00 5.3484963482139225e+00 6.9463245623822480e+00 2 0 -1
1811 2 1.0817837370213272e+00 4.9784653755081276e+00 8.4445220771035743e+00 1 1 -1
1161 2 -3.4463748855716041e+00 2.5118452911453781e+00 1.4105186037705881e+01 3 0 2
329 2 1.1492567916636728e+01 3.8481462569748981e+00 1.8181688414342052e+01 2 0 -1
1539 2 5.2797459069127282e+00 2.2221245366865148e+00 1.0100353637183652e+01 1 0 1
15 2 9.8754874820687775e+00 4.8526157845401485e-01 1.7386534963785241e+01 -5 0 -3
205 1 6.6651894351932404e+00 -5.2856447737589995e-01 6.8492742344410624e+00 4 0 0
1131 2 -4.0411042940537047e+00 8.0298563627187143e+00 1.8071566568962176e+01 1 0 2
1173 2 6.3267518746525040e+00 7.1799033499806324e+00 1.2178050360010111e+01 -3 0 -3
492 2 -1.2532659462716378e+00 2.7234647843409805e+00 1.0643116772346364e+01 4 0 0
396 2 6.9541075377480785e+00 -2.6906144196022939e+00 1.6435086796597407e+01 -4 0 -6
969 2 2.8543884941557689e+00 1.4063388050243013e+00 4.1777713546115098e+00 1 0 0
931 1 -1.2184535156660667e+00 8.8805498668943166e+00 4.2329208798287530e+00 -4 0 -2
1007 2 8.6663302763681642e+00 7.0069481570926513e+00 2.3517771643364473e+00 -5 0 -2
1472 2 8.1410514053760767e+00 -7.9710427788603067e-01 1.0463974205697225e+01 -1 1 -1
1438 1 1.3231659121636843e+01 -3.5564012073925508e+00 7.2412633842867189e+00 -1 1 0
982 1 -3.1372021942167718e+00 7.7380504663823100e+00 1.1998262148660782e+01 -2 0 -2
1263 2 9.1593456301106002e+00 -1.9610404439468310e-01 1.4150958627005542e+01 -3 0 -1
1322 2 8.1905064505173435e+00 2.3344288635324348e+00 7.1725633610302815e+00 1 1 -2
1247 2 4.2332782083956344e+00 7.5306297974409429e+00 1.8133635229908045e+01 -3 0 0
1805 2 1.5662881721864339e+01 5.7428372706937036e+00 6.4281585361767970e+00 1 0 -1
1725 2 4.2227789377326648e+00 8.4168151628528207e+00 8.7812173592777469e+00 -1 0 -1
1555 1 -2.5544060288456805e-01 6.5166692940294748e+00 3.3354258253278846e+00 1 0 0
795 2 8.8218357500593081e-01 2.9889470501459403e-02 9.4071008334641810e+00 -2 0 0
1966 1 1.0267988475165879e+01 3.4679328618627414e+00 4.1074264383390799e+00 0 1 -1
395 2 5.3531559963063522e+00 -2.7250022958373692e+00 1.6517161080444222e+01 -4 0 -6
1251 2 1.7147407671936612e+01 3.1448548966783614e+00 1.8578293975120721e+00 -3 0 -2
88 1 -1.0807053167770506e+00 -3.1864057533915964e+00 8.3012908616626326e+00 -1 1 -1
849 2 -6.1811057818679238e-03 8.6940496545105663e+00 1.1466374278106858e+01 2 0 2
654 2 1.1242854962977397e+01 -1.4772527801216846e+00 1.6637306914659167e+01 -1 0 0
1666 1 1.4346400790795819e+01 7.7557918150488803e+00 8.9117538270896972e+00 -3 0 0
809 2 5.0218691243175595e+00 1.8948476742464635e+00 1.6879595414467261e+00 -5 0 -2
538 1 1.4492774015589294e+01 3.0102814911240632e+00 4.7344407302576350e+00 -6 1 -3
1329 2 4.8333431746166609e+00 6.6626716920383497e+00 1.5995237046797099e+00 0 0 -1
638 2 1.3030599329671904e+01 1.7398789355646791e+00 5.8140856074105578e+00 0 0 -2
1734 2 3.2180836787259715e+00 6.3646876268710315e+00 5.9272435313957255e+00 1 0 1
1064 2 -1.7550486718744311e+00 -1.2957755809896931e+00 1.7242638391785260e+01 0 0 0
1321 1 8.0806895077555616e+00 1.7258367702909965e+00 7.9478274106038977e+00 1 1 -2
2004 2 9.6976314262679288e+00 -1.2409879329900977e+00 1.8837271232252700e+01 0 1 -2
844 1 1.0430158052266179e+01 2.4083987261779880e+00 1.7264592113136345e+01 0 0 -1
99 2 1.7892127774647026e+00 -1.4570437432019219e+00 1.5417333487875746e+00 1 0 2
883 1 2.1058476849209118e+00 5.3389315340687578e+00 1.7162561946410730e+01 0 0 0
408 2 -5.1061844305113535e+00 1.3667303497823129e+00 1.6176968524675235e+01 -2 0 -3
34 1 8.9643992332307061e+00 2.7791623816439222e+00 1.3620408392726189e+01 0 0 1
560 2 1.7288849522681513e+00 5.4771257982392996e+00 1.5201135553453655e+01 -1 0 3
1171 1 7.3090777658746697e+00 7.1100954842068127e+00 1.2188705507471603e+01 -3 0 -3
259 1 2.4418813669094539e+00 3.7869631000685420e+00 1.1111194908965768e+01 -1 0 4
80 2 9.6319840421619780e+00 4.5576925702204285e+00 7.5936302334301367e+00 -4 0 2
1453 1 2.3094786381990549e+00 -8.6530581329160539e-01 1.6837281578873963e+01 1 1 0
1246 1 4.4484848291323980e+00 6.6389759831680202e+00 1.7770655024594024e+01 -3 0 0
1053 2 -2.2217136802072615e+00 -1.9010184871990004e+00 1.0998108684325237e+01 2 0 1
794 2 -7.6535168239076734e-01 8.4030823224001683e-02 9.1111944856758775e+00 -2 0 0
937 1 6.0760700176198750e+00 4.5148705929227475e+00 5.3687573610011752e+00 0 0 1
1008 2 9.9913050688193916e+00 7.5319769064427753e+00 1.6775673125907515e+00 -5 0 -2
1362 2 9.6146291526303518e-01 -1.7782264906684493e+00 3.6231690210800194e+00 -1 1 -2
32 2 1.2647229655890364e+01 3.9484351560839270e+00 1.2462579627438844e+01 -1 0 -2
25 1 9.4225804793157408e+00 -3.4688100649197819e+00 1.4710417056929519e+01 1 0 -2
1122 2 -3.2856247904966400e+00 4.5859265734184227e+00 1.2587951689603301e+01 3 0 0
577 1 1.0215379921820542e+01 5.5181955392135418e-01 1.2972778019948734e+01 -3 0 -1
1083 2 1.4507651755934090e+01 6.7637226409905011e+00 3.5097633126589414e+00 -3 0 -1
467 2 1.1761735058084980e+01 7.1268095602376693e+00 1.2558376132709697e+01 0 0 3
1172 2 7.5072341401757985e+00 6.1446684671496659e+00 1.2248824866240513e+01 -3 0 -2
1970 2 1.4788854832298277e+00 2.2943041358873630e+00 1.6099796266386171e+01 1 1 -2
772 1 1.4005830130888666e+00 6.3968201473340027e+00 1.0857978128421585e+01 3 0 -2
527 2 1.3939353204032976e+01 -6.6388465673665653e-01 1.1230291284374559e+01 -1 0 2
773 2 1.4662986067424608e+00 5.4668622742118931e+00 1.1043838978597092e+01 3 0 -2
326 2 7.1919311151817311e+00 7.4568741489897299e+00 5.6865279491054492e+00 2 0 -2
1121 2 -3.8630630439277858e+00 5.6520643368140693e+00 1.1653445983421710e+01 3 0 0
1810 1 1.2031966582775961e+00 4.0784718022398101e+00 8.7150098043284299e+00 1 1 -1
1822 1 8.0756216941958634e+00 4.4162112149401604e+00 1.1732289596725078e+01 -3 0 -1
57 2 4.3751843388411604e-01 5.3021744419982824e+00 1.3343135188267572e+01 -2 0 0
81 2 1.0274942046326036e+01 5.4547113016042825e+00 8.6882130552419881e+00 -4 0 3
1812 2 2.5723293121084989e-01 3.9621427742227340e+00 8.9030270825914961e+00 1 1 -1
118 1 8.2485960887710803e+00 7.1026755389523935e+00 7.1012309135590330e+00 -3 0 -4
1217 2 -1.0088332569299672e+00 3.6032294285219884e+00 1.2844234006371908e+01 1 0 -1
1328 2 4.3562646023329901e+00 7.8264354595428109e+00 7.1807772560523875e-01 0 0 -1
260 2 2.0142687734240750e+00 3.8030323900950815e+00 1.0259835050264954e+01 -1 0 4
1875 2 1.1604731956257964e+01 3.7593503073531398e-01 4.8227016447131685e+00 0 1 -1
1283 2 8.1708967762944305e+00 7.9767749863656565e+00 1.3243179116296645e+01 -2 0 0
1458 2 5.1042713334360545e+00 3.0304185936757211e-01 7.0891800395234696e+00 2 1 0
1619 2 -2.7522692774660449e+00 -2.8470045353747819e-01 1.5518653292233685e+01 3 0 3
181 1 6.2270729684734540e+00 3.4511324666899039e+00 2.8826817805976730e+00 3 0 0
290 2 3.8830415132098919e+00 2.8664447036223759e+00 1.5548705020357309e+01 -1 0 1
694 1 2.7640576034320556e+00 -1.8586792527777352e-01 9.1792090923906109e+00 0 0 3
1925 2 1.2878745862440375e+01 -3.6156566269619761e+00 1.4211929272630389e+01 0 1 0
1177 1 -3.5124222156306484e-01 -3.2224514009545713e-01 1.7344287461931930e+01 -1 0 -1
863 2 -2.8599495010680753e-01 -1.0250546534727913e+00 5.2931581297133823e+00 -4 0 -3
752 2 1.3707705442643562e+01 5.8447383585013171e+00 6.4231985080506284e+00 -1 0 3
89 2 -1.0632016302394329e+00 -2.5618878981271278e+00 9.0978722552986522e+00 -1 1 -1
1613 2 1.3574228323864972e+01 -1.9737030854709841e+00 4.4106790125394051e+00 3 0 1
37 1 -3.9735018391669197e-01 -3.4224231106672445e+00 1.8912889837492116e+01 -3 0 -2
1216 1 -1.1284989874796274e+00 2.7117605048644604e+00 1.2496092823909727e+01 1 0 -1
800 2 8.9620901934760759e+00 -1.5654596933022598e+00 8.0310181808416150e+00 1 1 -4
79 1 1.0061956350944213e+01 5.4087667792105663e+00 7.7491575400250277e+00 -4 0 3
255 2 5.7602243116103722e+00 -3.0685554954919527e+00 4.1365126195268855e+00 2 0 1
1912 1 1.5446451964713310e+01 4.9104310807903353e+00 3.2676616984803877e+00 2 1 1
652 1 1.2055835690167280e+01 -1.8217261783595042e+00 1.6190794374627721e+01 -1 0 0
341 2 1.1636555715031664e+01 -5.5123232826583557e-01 1.0650792078818077e+01 -5 0 3
1588 1 -2.0120419841978947e+00 1.1623655844570857e-01 8.2131914656551270e+00 5 0 2
741 2 3.6933892284826739e+00 -2.4109372333959822e-02 5.4192531142174456e+00 -1 0 3
926 2 1.6853347756702677e+00 7.4036970598948972e+00 1.4367754052940985e+01 0 0 1
1781 2 -5.3931116376368360e-01 8.2070740034766789e+00 8.6735217148418737e+00 1 0 -2
1733 2 3.1648677017814602e+00 4.9946671526658672e+00 6.6646695278693739e+00 1 0 1
5 2 8.9010627156766944e+00 -2.2372394888128064e+00 5.4962214247623047e+00 3 0 -1
578 2 1.1010770638100700e+01 -7.2749670501683905e-02 1.3172784803152089e+01 -3 0 -1
713 2 4.3878777891810055e+00 -2.1008546126668266e+00 2.2312680045531730e+00 1 0 5
1261 1 8.7150045208643512e+00 -9.0101250110537645e-01 1.4668104241516842e+01 -3 0 -1
120 2 8.6142529189725714e+00 7.8680159377141727e+00 7.5555961537650935e+00 -3 0 -4
182 2 5.5622282915612677e+00 4.0558413828879045e+00 2.5386237826317744e+00 3 0 0
58 1 1.1240308182880137e+01 7.1739017443444624e+00 4.0813164642201958e+00 -2 0 0
575 2 2.9923105789910185e+00 -1.5354236858923804e+00 1.3986330208993568e+01 0 0 -1
1365 2 6.2668687999804744e+00 -6.5671782649575183e-01 1.6657312025301088e+01 1 1 -2
757 1 9.6017063538349205e+00 8.2266827886797262e+00 1.7816783507515211e+01 -4 0 0
586 1 -4.7248914846241874e+00 7.8896883958965063e+00 1.6379468074262345e+01 2 0 0
302 2 7.5446363952900315e+00 2.2847983456497438e+00 1.4613270483376382e+01 -2 0 1
1065 2 -2.8750792269680789e+00 -2.4315643737141617e+00 1.7189514346674549e+01 0 0 0
998 2 7.2048064905747555e+00 2.1842726649734887e+00 1.8876319037908821e+01 -2 0 4
1005 2 1.5720167853081991e+01 5.2966310394324498e+00 1.3414822595805578e-01 -4 0 -2
1936 1 1.3259546238909294e+01 7.7557103742451172e-01 1.1311622135590893e+01 0 1 -2
135 2 1.2509152575046004e+01 -1.1964479123072600e+00 1.4658170159582339e+01 -1 0 0
6 2 9.7733188153391026e+00 -9.6033379878703728e-01 5.8074487463384736e+00 3 0 -1
1250 2 1.5933116635277692e+01 2.7850391744406453e+00 1.0073897328835864e+00 -3 0 -2
753 2 1.4092928223477811e+01 7.0512511180368858e+00 5.5972013217094929e+00 -1 0 3
257 2 6.4085051613846424e+00 4.0465937918451687e+00 9.2508518557658022e+00 -2 0 1
253 1 6.4689060426972125e+00 -3.2219352097205149e+00 4.7381621308968338e+00 2 0 1
1844 2 1.2076305106319407e+00 2.4477472253193975e+00 7.4533219967012805e+00 1 0 2
1481 2 6.1302432816099817e+00 5.1823237031408098e+00 7.4159969581197345e+00 2 1 -1
1987 1 3.9371975237637704e+00 9.0531753512838460e+00 1.5985922755729096e+01 0 1 -2
574 1 4.0048159258658815e+00 7.2502125078006348e+00 4.7671477638702715e+00 -2 0 0
947 2 1.1720738085008410e+01 2.6065441489260559e+00 1.4161783814199044e+01 2 1 7
1782 2 -9.7118014754707960e-01 9.2384619510023196e+00 7.7316167893303751e+00 1 0 -2
899 2 -3.0460614411155507e+00 -9.6832281004224541e-01 1.9056180053575449e+01 0 0 0
1537 1 4.4356543964824926e+00 1.7665411708032721e+00 1.0311532772205124e+01 1 0 1
124 1 1.2539017825803754e+01 2.7920141371008160e+00 7.6070651768836699e+00 -2 0 3
1599 2 1.2683083192592903e+00 -1.3340753796376603e+00 1.3326537238428454e+01 3 0 4
14 2 9.0206957442503519e+00 -5.0329442348900866e-01 1.6544325032260932e+01 -5 0 -3
1052 2 -7.7604128584656618e-01 -1.3381141006713539e+00 1.0497623416748526e+01 2 0 1
834 2 7.3293802331746676e+00 8.8563186944960925e+00 2.4144572883632924e+00 -4 0 1
1614 2 1.3382774146961838e+01 -2.9895404658722704e+00 5.6481605526318495e+00 3 0 1
1895 2 1.3612005463969419e+01 2.4803831359185438e+00 3.2580032518062150e+00 -1 1 -1
1655 2 -2.4711307575024839e+00 4.3251438299725766e+00 1.5236707210601754e+01 -1 0 0
848 2 -1.3719374882757061e+00 8.1645883168481905e+00 1.2010561763221196e+01 2 0 2
853 1 -3.3794884406636458e+00 2.6812279168045583e+00 1.8173353678535950e+01 0 0 -2
342 2 1.0532279774121051e+01 -9.9641858304955111e-01 9.4874417622598362e+00 -5 0 3
1971 2 2.3364458929906649e+00 1.0071132442795276e+00 1.5720426293912077e+01 1 1 -2
1309 1 1.1068362254172518e+01 8.6857960665303011e+00 9.0790860082648883e-01 -2 0 -1
119 2 9.0283699438616640e+00 6.4224623100642724e+00 7.3091796335577799e+00 -3 0 -4
1582 1 3.5801931451373772e+00 -1.9379142619225811e+00 1.4699638993534272e+01 0 0 -1
735 2 7.4929733487376655e+00 3.7260731118442303e+00 5.7471002581727113e+00 -4 0 -2
114 2 1.1973088150849676e+01 -7.2467701639633830e-01 1.6149013463830728e+00 2 0 2
1082 2 1.3063862593969111e+01 7.2569081237283264e+00 3.3541225849841445e+00 -3 0 -1
726 2 6.2357192473019678e+00 -3.0949879600435941e+00 8.9291146145940647e+00 1 0 2
330 2 -4.9083248967855546e+00 3.7181331957203714e+00 1.8227978081083215e+01 3 0 -1
514 1 1.3622686339951645e+01 -1.1750522271388091e+00 1.3745824266875328e+00 -2 0 -3
739 1 3.2631388878974521e+00 -1.9116662052742894e-01 4.5471355766389454e+00 -1 0 3
588 2 -5.4663823801020186e+00 8.4828832931929661e+00 1.6186898908651191e+01 2 0 0
1003 1 1.5725278090259939e+01 6.1463261634192179e+00 5.1528214945659889e-01 -4 0 -2
884 2 2.3169058156422215e+00 4.4439655041071244e+00 1.7452937340230005e+01 0 0 0
36 2 8.5772751415171093e+00 3.2259464571557341e+00 1.2798678473131554e+01 0 0 1
138 2 1.3844787555573816e+01 -1.2971201131973720e-01 4.4812438998238315e+00 2 0 1
561 2 2.8335451857031080e+00 5.4073125839396976e+00 1.3945938595430937e+01 -1 0 3
261 2 2.0677802315764193e+00 3.0314741872661175e+00 1.1639253823768632e+01 -1 0 4
2002 1 1.6222869579915319e+01 -1.6102480267583839e+00 6.2217816542452209e-01 0 1 -1
301 1 6.6717221954424497e+00 1.8476462715833204e+00 1.4676654189957461e+01 -2 0 1
1780 1 -2.0374086536427249e-01 9.0459893985343864e+00 8.2820516370833328e+00 1 0 -2
714 2 3.8959854369837483e+00 -3.4546509962160927e+00 2.6952447919788942e+00 1 0 5
740 2 3.9229821785120329e+00 -7.3080676256773458e-01 4.0999611534968183e+00 -1 0 3
31 1 1.1886314363229346e+01 3.3227191807311236e+00 1.2552396189368245e+01 -1 0 -2
775 1 8.3875867676594318e+00 4.2914645774097018e+00 1.7488565093503528e+01 -3 0 0
362 2 4.4526773386698464e+00 4.0529200578997724e+00 1.3649801980131405e+01 0 0 0
352 1 5.8872383480597170e+00 3.6183201491336892e+00 1.8171505441832881e+01 1 0 0
1063 1 -2.7166029249571673e+00 -1.4848110392119818e+00 1.7211454649963454e+01 0 0 0
1894 1 1.3020387910513689e+01 2.6209179195269714e+00 2.4909445291728027e+00 -1 1 -1
1473 2 8.0138488694560834e+00 -1.6062054484480259e+00 1.1710196896048544e+01 -1 1 -1
986 2 -1.8543400604395117e+00 8.3302720656666160e+00 1.5182352800489456e+01 1 0 0
1142 2 4.9565744375449485e+00 5.1223327715967315e-01 1.7415591318659974e+01 3 0 0
137 2 1.5323310787791240e+01 -5.4586440058374741e-01 4.4108126269671715e+00 2 0 1
1159 1 -3.4839278123929214e+00 1.7964277867252259e+00 1.3349556581740938e+01 3 0 2
1284 2 9.5856057005745772e+00 8.6916112140491801e+00 1.3521230721603487e+01 -2 0 0
391 1 1.1721501968467562e+01 8.9176132291250880e+00 1.3268547583839837e+01 -2 0 -3
874 1 7.0025458762181092e+00 1.4473664161422288e+00 8.0635149564048625e-01 1 0 4
55 1 -4.7306570202940801e-01 5.3699742205900272e+00 1.3055165620824692e+01 -2 0 0
303 2 6.5286128927280389e+00 1.5626448405567528e+00 1.3763832503269482e+01 -2 0 1
559 1 1.9858360733494917e+00 5.7348574695367684e+00 1.4271513237850350e+01 -1 0 3
1178 2 5.0976055970571732e-01 -7.1829792228429135e-01 1.7268332630235740e+01 -1 0 -1
26 2 9.3802654627962845e+00 -2.4994334630071631e+00 1.4800920278801282e+01 1 0 -2
938 2 6.1460922624001952e+00 5.4619358430405089e+00 5.0963125810061340e+00 0 0 0
134 2 1.3042634586072685e+01 -1.0348435159999374e+00 1.3184836015152595e+01 -1 0 0
1403 2 3.1930392927197215e+00 -2.9966121212533121e+00 9.8321771928240445e+00 0 1 -1
394 1 6.1477371059803438e+00 -2.4491481297662752e+00 1.6961795842336816e+01 -4 0 -6
1993 1 -2.6685019337762097e+00 8.1505141120630373e+00 1.4681512645355070e+01 1 1 0
1130 2 2.1421006618305825e+00 7.3932254479565884e+00 3.0119648306639579e-01 1 0 3
133 1 1.2447116055154055e+01 -7.0289449407747595e-01 1.3842072268737409e+01 -1 0 0
516 2 1.3809660169808854e+01 -9.7851063894723334e-01 2.2887993681582595e+00 -2 0 -3
1067 2 8.9152915557547399e+00 5.1187339714946543e+00 1.5119091021301905e+00 -1 0 1
353 2 5.4002770061553962e+00 4.2242319499021095e+00 1.8806638848556684e+01 1 0 1
660 2 1.4558529083159968e+01 8.6766064896300819e+00 8.8252057056009861e+00 -3 0 0
1806 2 -1.5069976023842386e+00 5.8636967439264662e+00 7.7499455220117284e+00 2 0 -1
1845 2 1.2223382855118174e+00 2.6126216562979092e+00 5.9901643316719539e+00 1 0 2
1584 2 4.4705530704380676e+00 -1.4404219997209888e+00 1.4677254446362481e+01 0 0 -1
1998 2 1.1048566013606690e+01 9.2187527013261956e+00 9.9037869910226224e+00 -1 1 -1
1402 1 3.2838717892731948e+00 -2.7106517762399225e+00 8.8589301380164560e+00 0 1 -1
1327 1 5.1785987816973593e+00 7.4152843030126778e+00 1.0393257389393851e+00 0 0 -1
1004 2 1.6400135587702007e+01 6.1923665477702610e+00 1.1934206613258309e+00 -4 0 -2
1441 1 5.7386771606675318e+00 6.2338230967469759e+00 1.5324051087686161e+01 0 1 -1
1836 2 8.5971112861161370e-01 -3.5766221449149533e+00 1.7378242796340569e+01 0 1 0
653 2 -5.4147961977532599e+00 -2.5114432946912109e+00 1.6734201065468582e+01 0 0 0
720 2 1.2070020055469932e-01 8.8104327081944049e+00 1.5634176597726604e+01 -5 0 -2
1292 2 9.1515303621012301e+00 -2.9811417274017242e+00 4.3629615318361575e-01 -1 1 1
1012 1 2.4102327565900961e+00 -3.2011982308337910e+00 1.1232653822921405e+01 1 0 0
1456 1 4.2150733828886260e+00 7.1118257270356455e-01 6.9043473513304825e+00 2 1 0
1556 2 -5.5215653471450366e-01 7.4004017255908394e+00 3.6558180887244971e+00 1 0 0
1471 1 7.9680431856776366e+00 -6.6756730770248485e-01 1.1399377826031428e+01 -1 1 -1
254 2 7.3631158379193833e+00 -3.2077751297801109e+00 4.2734443739466590e+00 2 0 1
126 2 1.1713485817721617e+01 2.5777831774823072e+00 7.9312173961235359e+00 -2 0 3
407 2 -4.7564170662239249e+00 -1.3901185197117272e-01 1.6652119748948589e+01 -2 0 -3
1160 2 -3.3458898529197243e+00 9.2234521467532549e-01 1.3818545449715238e+01 3 0 2
206 2 6.2288274316211929e+00 -1.3192272459005490e+00 7.2916168180664647e+00 4 0 0
1967 2 1.0523769226009614e+01 2.5706415629700441e+00 3.7896212138510093e+00 0 1 -1
973 1 -5.3828467522594510e+00 5.3487759500350034e+00 1.5792541920491029e+01 -3 0 -1
90 2 -1.9457895692638449e+00 -3.6508045154261848e+00 8.3767939691002375e+00 -1 1 -1
925 1 1.4977002839903646e+00 8.3482365775363458e+00 1.4604501134557944e+01 0 0 1
324 2 1.3467633071570717e+01 -1.8595094659237728e+00 7.8011674340841202e+00 4 0 -1
875 2 7.4559297963398876e+00 1.7156030296226072e+00 1.5877791112789930e+00 1 0 4
515 2 1.3592003773317087e+01 -2.1151725102353831e+00 1.1974943600222596e+00 -2 0 -3
1913 2 1.5723185750815478e+01 4.4633979635886796e+00 2.3892211963664813e+00 2 1 1
1950 2 6.4945353039347902e+00 -9.3115119145760206e-01 2.5465528910919475e+00 2 1 -1
1141 1 4.1600837244562605e+00 6.1639567577831489e-01 1.8018511222406261e+01 3 0 0
1620 2 -2.6736042808041502e+00 -1.3397554833557765e+00 1.4435670810939403e+01 3 0 2
777 2 8.4065249422091384e+00 5.0620508937341082e+00 1.6911963356760985e+01 -3 0 0
1557 2 1.1008821188849627e-01 5.9582889978233737e+00 4.0583128226494090e+00 1 0 0
808 1 4.1016912720088765e+00 1.6085969943377396e+00 1.6525321037537832e+00 -5 0 -2
291 2 5.4373568856167820e+00 2.7737838993484711e+00 1.5147360836755110e+01 -1 0 1
930 2 4.1270723005536158e+00 7.2087591364015644e+00 1.0604142503240331e+01 1 0 0
1724 2 5.1833487124213740e+00 9.3969540682272825e+00 8.0345338001933904e+00 -1 0 -1
1041 2 8.8980552347757402e-01 6.2621892588065649e+00 1.8077935093132231e+00 -1 0 -3
824 2 3.9812361454844885e+00 5.9038690626352714e+00 3.4754732075414618e+00 0 0 0
323 2 1.2633165173678872e+01 -7.9282658160257036e-01 8.6155820376392551e+00 4 0 -1
328 1 -5.5916292082668813e+00 4.3881046389999554e+00 1.8176279391788913e+01 3 0 -1
526 1 -3.8092559642441204e+00 -1.6308075993421070e+00 1.1432994745776215e+01 0 0 2
614 2 -1.0664850685260285e-01 6.4586044382567653e+00 1.0151559122308818e+01 -2 0 1
633 2 -3.3495725187917813e+00 -3.3086834454364276e+00 1.3333013461213547e+01 -1 0 -3
760 1 -1.6313976064478188e+00 4.3440418434223256e+00 1.6776303113810425e+01 -3 0 2
751 1 1.4139346327684347e+01 6.7190206571766069e+00 6.5284222399577390e+00 -1 0 3
540 2 1.5142967079223867e+01 2.5983924147231940e+00 5.3730041864639784e+00 -6 1 -3
1433 2 4.7062300995233919e-01 1.7906748026260066e+00 1.2734302835497118e+01 0 1 -2
1364 2 6.4937030431645253e+00 8.2552592871301034e-01 1.6025803824807813e+01 1 1 -1
983 2 -3.2720747683786291e+00 7.7763677819716541e+00 1.2950541648744093e+01 -2 0 -2
1179 2 -2.1202627820568765e-01 6.8140086303113723e-01 1.7337543332039026e+01 -1 0 -1
759 2 9.6179359026516984e+00 7.5942215027565965e+00 1.7074134130481795e+01 -4 0 0
1282 1 8.7492580178882662e+00 8.4729456965081802e+00 1.3943822499864227e+01 -2 0 0
91 1 2.7297894582401749e+00 2.9738293143078991e+00 1.8365112644991797e+01 0 0 1
192 2 6.7162127365884938e-01 6.1794057345788822e+00 1.7866905683209705e+01 -1 0 -3
264 2 1.4403929848069453e+01 9.0488045075804457e+00 2.9136943785159333e+00 -2 0 1
389 2 6.6884722518674140e+00 3.1606647531451459e-01 1.1784705508902439e+01 -3 1 1
1210 1 1.2311799526494628e+01 4.7806718720407666e+00 5.3332613901645285e+00 -3 0 0
491 2 -5.1844045382593729e-01 1.8169805950337583e+00 9.7312793814007943e+00 4 0 0
631 1 -3.5597004557049363e+00 -3.1838826828292817e+00 1.4252030250817409e+01 -1 0 -3