LAMMPS data file via write_data, version 8 Apr 2021, timestep = 1754000

1008 atoms
2 atom types

0.023704142418251903 20.64882251481448 xlo xhi
0.023704142418251903 20.64882251481448 ylo yhi
0.023704142418251903 20.64882251481448 zlo zhi
0 0 0 xy xz yz

Masses

1 16
2 2

Atoms # atomic

828 2 9.065409361045061 1.8628367338255805 1.17647502202088 1 -1 1
149 2 14.932737466239324 0.5811049403257812 7.065650081334458 1 0 -1
670 1 6.4499946832837525 2.2575579353430233 5.314753945689602 0 -3 0
42 2 11.309583350688763 8.215823654289673 8.451990351713645 -1 0 1
748 1 20.483050017957208 1.1606424228688978 9.691704522943576 1 4 4
956 2 4.360447121317452 0.15909405496836082 5.756023105871515 0 -1 1
248 2 3.3804201803197174 8.902518340033463 3.0054041205091826 1 0 0
35 2 18.314325792452113 4.961677952108085 0.6660866169297225 -2 3 0
532 1 17.862847052473068 5.013200431448247 6.384223149498745 -4 1 3
516 2 10.768484213557477 3.2260963642213425 1.8818154644792815 0 3 2
520 1 19.16832684794424 2.8351735020715774 5.506787343835262 -1 -1 0
114 2 2.709816854097088 4.420878914917799 7.3690752613450705 0 0 0
553 1 5.458498505395613 5.341925568112068 8.829855202505069 0 -1 -2
857 2 4.1847972303761924 7.944747393612655 8.940690715454004 0 0 -1
169 1 15.885609853702915 7.5001248395021225 2.0530332796762365 2 2 0
409 1 17.862698192343256 4.127890051891463 1.986001319647527 1 1 -1
951 2 10.415794179541326 2.0445314194366406 9.243844301180394 -1 1 -1
162 2 8.763907404699843 5.802692680751706 8.173492872840196 1 0 1
267 2 4.961027462876424 7.178265072125677 1.1686132391225585 1 1 2
799 1 16.899328971250824 1.728510021827458 2.151433016597431 -2 2 -2
197 2 9.080676103417222 8.868987126553433 1.9064061332731708 -2 0 1
208 1 6.957471721451174 0.14002507909804784 8.986700946795514 -2 1 -3
796 1 15.474000060290043 2.2637055053367856 6.756987355772908 0 0 0
902 2 9.16995712129538 6.145526808638325 1.9905693046415915 -2 1 1
712 1 14.918019415025404 3.661896521304359 3.298073078777866 -2 0 3
801 2 17.396458643979063 0.9073211924660819 2.0941354249963027 -2 2 -2
922 1 15.249709724332064 8.211150888519697 9.218328995267335 0 2 3
64 1 3.426051842205169 1.7700588687021455 2.903461550903259 2 3 0
232 1 18.74973029677421 8.400772643747402 6.09943840851247 -1 0 -2
206 2 12.456183731075942 9.698385259680828 3.0015864586980476 -1 -1 1
542 2 12.43225316093223 1.7503621645514613 1.086796831963342 -3 0 -1
852 2 20.427183508508342 1.811196008770996 0.45970184280133786 0 1 1
259 1 6.3003181217356845 9.054826809902938 3.6871475334440227 0 -1 -2
822 2 7.1001593511776075 4.834541758211315 2.7843674378962864 -1 -2 0
411 2 17.473740973657023 3.1421592691808864 1.7183886924918133 1 1 -1
941 2 20.510674895399884 1.5065386021563592 8.009358451943909 0 0 2
23 2 17.26466232140152 1.6405625675510829 9.420160065456763 1 1 -1
32 2 5.742276712672528 9.090146615676073 7.331067970017648 -1 2 -1
92 2 9.503681249483938 0.3607687425102482 6.778455065685074 -4 0 -3
167 2 12.88880832389806 1.3814922066883573 9.412463836016215 -1 -1 -2
241 1 19.50927921154589 7.769245160224657 1.7255339981036104 -1 0 1
682 1 11.98576893954459 7.646113220790405 7.05837738260151 -1 2 -1
160 1 9.326918020417763 5.031817072644038 7.84025605524094 1 0 0
925 1 9.57281520882625 4.440528653554113 5.08697799054199 -3 3 0
41 2 10.385176107980786 8.241672631911023 9.698818017534965 -1 0 1
247 1 3.6313188678514274 8.389616180417919 3.827937849090314 1 0 0
337 1 2.310467639568835 6.531786875409104 2.122762859606277 -2 0 0
261 2 6.669980883097658 9.787853408417044 4.245714941604765 0 -1 -2
600 2 3.634712879358342 7.838772681332634 6.424207227623625 -1 -1 -2
927 2 9.023317117479943 4.592363586633281 5.908398368302012 -3 3 0
749 2 20.28280857448082 1.9580236005601086 10.258290756100806 1 4 4
575 2 0.34287575377971896 4.255125083347629 1.6855243228099115 -1 -1 1
939 2 2.602638997536775 1.7443730290519666 1.324699751483344 1 2 1
533 2 18.609968236545996 5.283932682796587 7.0266407564240065 -4 1 3
596 2 16.901127755141175 7.96799316396563 0.597894035067294 -1 0 0
266 2 5.022699242732105 8.647542223808363 0.7783159893635979 1 1 1
106 1 1.7758485637799792 4.490245558681967 10.098356265719099 2 1 3
809 2 5.073221612447242 5.649739955843142 4.7510666524795475 1 1 2
814 1 5.91365834646211 9.962052045392307 1.3173860923880887 0 -1 0
781 1 17.064156383268774 9.97631889526883 8.795139677000742 0 0 2
602 2 16.7950858838817 1.4708961542633154 4.1049459799510535 4 -2 1
260 2 6.358914890538386 9.313688442579032 2.7823543875317385 0 -1 -2
234 2 18.978352208376688 7.6176929998206235 5.505302774277014 -1 0 -2
937 1 1.837429654670034 1.8394052182571066 0.7802213501016779 1 2 1
112 1 2.725117787529176 5.301783202982669 7.8623638496506105 0 0 0
513 2 14.978462564847888 5.9962298038767 4.478936703375073 2 3 0
695 2 7.123070598889257 5.84515652506263 5.863339188251078 1 -1 1
606 2 14.075517626325484 2.5501702300336535 0.07517796785439913 -1 -1 3
370 1 2.6428338974062924 2.7380669006408516 6.596133417028144 0 -1 2
400 1 10.544302053847154 7.898039909955316 4.856492228492418 -1 3 -3
152 2 10.050286814417312 9.835868940787696 7.7666399777267845 3 1 1
580 1 12.408354886172734 6.84481630237584 1.497601659929467 -1 0 0
599 2 3.2865416947828003 9.202608737760299 7.191969681321691 -1 -1 -2
919 1 1.0591212849212888 8.539430620986911 0.1647686425032904 1 -1 -2
198 2 10.323441403029243 9.781495893869211 1.9307979534531223 -2 0 1
265 1 4.595919969287389 7.805217623199454 0.4869806260801127 1 1 1
923 2 15.192708176346855 7.4694684654112615 8.545092825202572 0 2 3
122 2 19.76763389947528 3.5600781123315244 4.137218243857264 -1 1 0
412 1 18.230047337728866 10.042340113515374 2.4970513778292927 0 0 3
714 2 14.28147269543129 3.531719978147378 4.0551562313210505 -2 0 3
310 1 11.091867125340668 2.262128228704831 4.990833908075459 0 1 -1
797 2 16.077954510602844 2.6253473731814023 7.425912719131564 0 0 0
84 2 16.959817157614317 5.03337353634678 3.460493544325415 -2 -1 1
158 2 16.329052157663654 3.590422047462153 9.783955351907895 2 1 -2
955 1 4.423135941882002 0.8281824202474937 6.492671195650809 0 -1 1
157 1 16.744206497128168 3.220308715727974 8.95459637422675 2 1 -2
654 2 5.182738650735764 2.294285156315827 7.945684083347358 1 0 0
193 1 2.4565432351329792 3.805938604004829 3.9633545863814374 1 1 0
819 2 19.183414073514772 7.730819584590387 10.001843493849746 -3 1 0
338 2 2.007573487081063 5.981015197251412 1.3954970347733062 -2 0 0
233 2 19.313644347959283 9.143024902968756 5.733353438729899 -1 0 -2
323 2 0.8188565691206647 9.178114422688333 4.875008862287518 1 -1 -3
1003 1 19.942437625798977 10.321691140478405 4.564350284776582 2 -1 1
643 1 14.594019750685893 5.373946308224423 1.3621500025854156 2 0 2
215 2 13.795952921936436 8.341630657291343 10.184765662532879 1 -1 -1
22 1 17.573120583454184 0.8798977366757947 9.978159807488817 1 0 -1
826 1 9.472176137723244 2.2163722588010994 1.9876966251060861 1 -1 1
293 2 5.837910536096866 5.45666602285551 1.2533667019773087 3 -3 3
639 2 11.610559718784486 1.1612378164666035 3.842758327408501 -2 -1 1
800 2 16.105732196065436 1.6526592310105543 1.584181199938268 -2 2 -2
650 2 11.883462586280947 4.94079193729799 3.2429454783762965 1 2 1
969 2 6.394294508820925 2.358105901481927 3.504386438244453 1 -1 3
249 2 4.5624901698492755 8.696981109126316 3.928755975801361 1 0 0
901 1 9.583880076858662 6.743434711211401 1.32113929194644 -2 1 1
645 2 14.749109299633135 4.70793326863251 2.083419908578879 2 0 2
117 2 19.628150136640578 4.938354586252981 8.884676423516504 -1 -3 0
322 1 1.298761972081187 8.380353825720452 5.171695471323979 1 -1 -3
694 1 6.561251039465881 5.086770611324015 6.067017916232194 1 -1 1
549 2 1.1360423657247534 8.425564172395033 10.319629883672636 -2 2 -1
821 2 8.270692451573549 3.7933436785781116 2.5393205747546976 -1 -2 0
940 1 0.30412590733753064 1.6962232111848807 7.148812532947283 1 0 2
342 2 18.684167543708355 9.399842970387535 8.804638212401983 -2 0 -3
341 2 19.24647527433949 8.513736526215736 7.715866603636713 -2 0 -3
121 1 20.326735632374866 4.1591599941611825 3.5083271535023495 -1 1 0
968 2 6.473051522026629 1.5150499226029255 2.162690545896732 1 -1 3
671 2 5.664790690566137 1.8721662662624152 5.796177948866763 0 -3 0
161 2 9.047638205882041 4.231767538933481 8.351576030396433 1 0 0
798 2 16.045016698554853 1.8494757105753346 6.030920474074292 0 0 0
522 2 18.43337469812585 2.23345490550189 5.21150485897141 -1 -1 0
262 1 7.618632873851376 7.550827835082731 5.434346557464566 -2 1 -1
708 2 1.2634250543076466 7.81197755549097 8.252318939054774 0 0 1
369 2 6.974181773841266 6.159310220322108 9.133189161385157 1 1 -1
340 1 19.519587077651504 8.894114424353003 8.576012091796274 -2 0 -3
402 2 10.866574014030201 7.29989427554778 4.21047469299358 -1 2 -3
31 1 6.591077993271304 8.928882479126194 7.711568987661442 -1 2 -1
988 1 15.174745569230778 6.066443071268825 7.537181296097905 2 0 1
292 1 5.987105976341725 6.027395035150261 2.0156776099582383 3 -3 3
990 2 14.751273442045964 5.292988176994409 8.042121255568649 2 -1 1
166 1 13.843823128677341 1.4974800827753185 9.522644974306303 -1 -1 -2
168 2 14.192357451281099 0.7660133682490095 8.996006448984499 -1 -1 -2
827 2 9.557853713227024 1.4442464967322923 2.5774086881036036 1 -1 1
330 2 0.19466903752999104 7.341187068087024 4.5444112113675015 3 0 1
115 1 19.482642301740317 5.651381446667724 8.242570069674965 -1 -3 0
924 2 15.706120426499375 7.860535396587136 9.981130513515895 0 2 3
649 1 11.810188537385772 5.60853938681099 3.9539965281366865 1 2 1
324 2 2.1658721207308096 8.36521958042882 4.773260536195357 1 -1 -3
462 2 8.45026169728212 3.0715904836812817 9.848449744827901 -2 1 1
39 2 17.128176377577184 8.585079497016137 6.221529326500678 1 -1 0
564 2 5.7423599214457175 3.574744780251044 0.6411631436930909 -1 2 0
107 2 2.051757489708937 4.807628161289903 9.212547649739188 2 2 3
451 1 13.402416056315126 3.4837832455562294 5.3605299661098 -4 1 -2
511 1 14.219501112554449 6.181083630159088 5.056927295179248 2 3 0
696 2 6.396755800844673 5.101257831363747 7.041379204532292 1 -1 1
783 2 16.211080651940232 9.426553855168581 8.824427299449486 0 0 2
461 2 8.22619573220537 1.765480393687588 8.945292818234536 -2 1 1
99 2 6.8974526355083325 0.5016350270649468 0.06145585124013814 2 -2 1
108 2 1.9889511451014679 3.5287535801686643 10.178009799763602 2 1 3
541 1 13.080671450266209 1.3704593945959789 0.4936950010494657 -3 0 -1
460 1 8.758323218863675 2.5705015123666133 9.011205146054447 -2 1 1
116 2 20.310163301900115 6.135688814539271 8.114861840803064 -1 -3 0
733 1 13.74940647622889 9.702173169847702 7.360027896483412 0 0 0
851 2 19.237466735094152 0.8638763291613195 0.9232870434048478 0 1 1
820 1 8.030067671899477 4.648441355131501 2.9646168272383373 -1 -2 0
312 2 10.45847164905174 3.0350819359752275 5.003985547050254 0 1 -1
242 2 20.36337149487667 8.083584975187465 1.2918188490144937 -1 0 1
371 2 1.6968708144690419 2.546503756163445 6.889114264065792 0 -1 2
82 1 16.743027370562825 5.808181978513373 4.017974746147756 -2 -1 1
159 2 17.635410525138486 3.588528266476073 8.946370060349624 2 1 -2
548 2 2.5658823562486384 8.583993528740944 9.654197722139958 -2 2 -1
651 2 11.110472492374349 5.167709263100813 4.527372696141743 1 2 1
93 2 10.704457570437155 0.8863300765703125 5.979955526499725 -4 0 -3
71 2 13.855877012652295 8.092800324247303 4.10568666247506 0 -3 1
950 2 11.099917798583201 1.0589356239242698 8.295841613396115 -1 1 -1
401 2 9.565036841439841 7.872865626563035 4.908942160726173 -1 3 -3
216 2 12.257756365134604 8.72569466535258 10.22149086550562 1 -1 -1
263 2 7.381582597200029 8.13932231022058 6.200641415926926 -2 1 -1
810 2 4.203231811526633 6.6683708344502515 3.968333518193226 1 1 2
294 2 5.334576918136882 5.926602541355488 2.7423633459387187 3 -3 3
581 2 12.786994862912334 7.223897360979612 2.3451364211491432 -1 0 0
856 1 4.178774059395443 8.09983632600626 9.895126746875079 0 0 -1
38 2 15.913493004850054 7.81239446844365 5.921404524728124 1 -1 0
652 1 5.175044257405928 2.7437744516791995 8.789235692887553 1 0 0
989 2 14.678772933045588 6.002250666379742 6.698312442385328 2 0 1
707 2 1.1168320426900018 7.701312760324285 6.629932743052013 0 0 0
735 2 13.207041363187116 8.861253409151304 7.149288260558562 0 0 0
174 2 2.198341079093535 0.6064025960588434 3.2543513389196725 2 2 0
942 2 20.336776782896184 2.155918512660295 6.539975452049643 0 0 2
452 2 13.907773905052617 3.0790322447721614 6.114089115027461 -4 1 -2
554 2 4.561106668401151 5.502070982985779 8.43505110085129 0 -1 -2
653 2 4.341439975630896 2.5257165379771958 9.20098955885234 1 0 0
574 1 0.7204768842148743 4.151176571051188 0.8122649224112103 -1 -1 1
109 1 13.665108405303112 4.222557495222047 8.983104669610123 0 1 -4
605 2 14.717553174881989 3.90384237747312 0.3028432181226498 -1 -1 3
113 2 1.9463854405772676 5.852784500129342 7.5548814088620935 0 0 0
311 2 11.99206109583624 2.641160677665595 5.1728231424652 0 1 -1
339 2 2.9425479192798605 7.153726519364096 1.8147915382280553 -2 0 0
534 2 17.04422995477005 5.2541612384099645 6.8688720548232425 -4 1 3
328 1 20.11122214818993 6.730599067190594 4.32213940973435 2 0 0
903 2 10.504922145323855 6.501824344939129 1.3121994314257284 -2 1 1
171 2 15.461464720279254 6.713875338661165 1.6399400058621318 2 2 0
684 2 11.96809965288705 6.656803338055252 7.093363419909808 -1 2 -1
83 2 17.277485347448298 5.663240597531746 4.809450717985598 -2 -1 1
457 1 11.907315054838012 4.94026601024148 7.087127375311275 -1 1 -1
598 1 3.9858021393281713 8.586500811967198 6.943780670983548 -1 -1 -2
72 2 14.609561620189794 8.291391312048265 2.82608015688356 0 -3 1
33 2 7.1012872513679755 9.728375936438356 7.494306433651481 -1 2 -1
194 2 2.9801425206651366 4.532373712282642 3.628604362492187 2 1 0
514 1 11.56035995020928 3.8287954309435035 1.7588419220599172 0 3 2
683 2 11.556527480706487 7.903014009839532 6.249343723258871 -1 2 -1
458 2 10.941035844729901 4.827946285256395 7.328675309786878 -1 1 -1
210 2 7.2172847171345165 0.128656948244518 8.038375727824652 -2 1 -3
410 2 18.756245635125563 3.9828690576646024 2.3605184396087417 1 1 -1
808 1 4.430227605922777 5.692518083265878 4.052261128211028 1 1 2
66 2 3.1750654445025344 2.6331313478547482 3.237523929628572 2 3 0
144 2 15.74587442167455 9.765016419808413 4.783089997773976 -1 -1 -1
641 2 7.651779187789206 0.918410566460563 5.773903863843982 2 3 -2
601 1 17.132324285967716 1.1969377538094848 4.951518274660659 4 -2 1
195 2 1.5068465709176238 3.9964257238353627 3.6898393018612627 1 1 0
734 2 14.662546616931353 9.529549994626791 7.010227762201252 0 0 0
170 2 16.407090743281078 7.061558278569666 2.7746849652976042 2 2 0
264 2 7.034710643038657 7.859998537713543 4.641560576204063 -2 1 -1
644 2 13.664803468099997 5.673060256118358 1.479620258589212 2 0 1
111 2 13.60332032555583 3.2504005918785506 9.011642370667737 0 1 -4
37 1 16.16018319235629 8.705715066342277 6.163959946626411 1 -1 0
957 2 3.7539168810759938 1.576578597630644 6.594036437761222 0 -1 1
512 2 13.49329174007351 5.686173609559893 4.685791311305719 3 3 0
459 2 12.401200416923594 4.606609389185312 7.93067262218521 -1 1 -1
555 2 5.4640398969637785 4.4214886640278825 8.855373244714205 0 -1 -2
582 2 12.581585955185572 7.559007064347025 0.7886190992576108 -1 0 0
920 2 1.771851330725614 8.88906947099418 0.7878693960199478 1 -1 -2
65 2 4.411787799870816 1.8106135225214428 2.809336086556279 2 3 0
414 2 18.561497312430404 9.214528399628133 2.124809384003026 0 0 4
196 1 9.390360987548942 9.703780469909242 1.6799338608118983 -2 0 1
967 1 6.039398875371375 2.265733415460908 2.5745929830197163 1 -1 3
123 2 20.324490097279085 5.115177806193008 3.9408244140749393 -1 1 0
713 2 15.59750618319298 2.967400761747609 3.2952056664752862 -2 0 3
672 2 6.480923504294995 3.2119880216578323 5.452630012507311 0 -3 0
453 2 12.858072874901287 4.149231203659494 5.931363516323679 -4 1 -2
329 2 19.948270539434155 7.014617456010033 3.3923418472982996 2 0 0
368 2 7.297249703166509 7.500699440385858 8.46040628670206 1 1 -1
70 1 13.859805898168634 8.681746817907044 3.3751503765753155 0 -3 1
706 1 1.0633156772036874 7.240984619774552 7.486222239156559 0 0 1
372 2 2.5715098167612727 2.9450713700817035 5.637143968179083 0 -1 2
110 2 13.492120254590048 4.516561060524359 9.926984401233922 0 1 -4
132 2 2.5479249900562184 1.2140849557477014 9.602696996081521 1 1 -3
603 2 17.020347197532704 0.19617492524297697 4.894665993056664 4 -2 1
576 2 1.1919721861211188 3.3050340093767634 0.8589258786542875 -1 -1 1
367 1 7.707736281695129 6.7960733911661135 9.022864670625756 1 1 -1
515 2 11.525561070512568 4.1477889686709934 0.8859287244952128 0 3 2
521 2 18.69460837500289 3.6570202978824886 5.863029686935608 -1 -1 0
926 2 8.894884097997009 4.590175991753691 4.279689778248963 -3 3 0
205 1 11.670627951553515 10.27567336567751 2.815585153146347 -1 -1 1
243 2 19.157664052481348 6.990402191595584 1.195187123173101 -1 0 1
850 1 19.529561211962577 1.4520802607958518 0.16359775876598712 0 1 1
40 1 10.932563679913493 8.83689769910982 9.17640549819392 -1 0 1
949 1 11.180404834653386 1.4441616506021102 9.17315004350259 -1 1 -1
91 1 10.474843485816832 0.3511648512633225 6.771345923709233 -4 0 -3
815 2 6.777331687026526 10.245350880219982 0.8811607542792167 0 -1 0
547 1 1.6089607189948563 8.636207138043527 9.469028281465526 -2 2 -1
889 1 2.794055544504617 9.837787620647665 1.7067594968013986 0 -1 2
640 1 7.7360852600514995 0.14444691128526566 6.352426708567032 2 3 -2
130 1 2.967572844179622 2.0048008046428905 9.953549324389968 1 1 -3
637 1 11.68202233745291 0.3691435713167508 3.3121669961125813 -1 -1 1
413 2 17.32706186173383 9.947584990642945 2.91412751727669 0 0 3
543 2 13.214294976168809 0.44833553869421805 0.7137285360115324 -3 0 -1
34 1 18.929787459947907 5.446211043610798 0.06265632778460584 -2 3 0
97 1 6.276200913450243 0.31247746224729966 0.8359564085857694 2 -2 0
975 2 0.23167666649273433 0.2561468967759589 6.201194382498723 -1 -2 1
24 2 18.538265308643222 0.8876852797898389 9.795081088362569 1 0 -1
891 2 3.2328969763931923 10.297399092491684 0.8782624379123448 0 -1 2
44 2 0.09773804010465532 3.9487733817778 10.336101344917385 1 0 0
36 2 19.769963936469303 4.944874370734967 0.05603053756188352 -2 3 0
256 1 10.27034633753606 1.833914233477712 13.85820522345488 -1 2 -1
692 2 6.910097257731423 2.1844405433917413 17.11785054227697 0 -1 -1
74 2 15.722240395748845 9.689126808945105 20.394181689573735 3 -2 -1
843 2 4.670579773157915 5.1451461031594405 17.862351604891508 -1 0 -3
298 1 0.5461890722812078 0.10572966750239815 12.285633904466472 3 -1 -1
305 2 18.94488974026297 5.7966843563487584 18.983153412377987 -2 -2 -1
730 1 10.487177444610072 0.04463588041835307 11.33173054759694 3 1 -1
443 2 8.261186743376253 4.062632921727262 18.420872325235216 2 0 -2
885 2 3.1866448567451187 8.15499320962611 15.885346257283956 -1 1 2
304 1 18.976546466603036 5.609584098782629 17.99813332069012 -2 -2 -1
803 2 13.945811433264312 1.989159894294943 11.386092817566913 -1 2 -2
510 2 19.5805771490246 3.4031826088818864 16.270448430893005 2 2 3
349 1 6.722616262134961 5.2989655756362 15.345285251463572 1 1 -2
223 1 20.321273870278866 10.216340618432337 11.200732976016546 -1 1 0
5 2 11.690713269584453 8.716315869116071 15.975502781176496 -1 0 -1
656 2 17.39869157196079 7.275644276807267 11.372589943912695 3 0 1
987 2 15.468922299363653 7.330177405495028 17.859811973161825 0 1 -1
930 2 17.424328470574793 5.6273793708094235 14.826674382972023 1 0 -1
841 1 5.152461877858861 5.712007186934693 17.26882499724039 -1 0 -3
634 1 9.563326282762123 5.319324431989717 18.557293844760405 0 0 1
437 2 16.89659424667274 2.923175392552619 14.099507488992533 0 0 0
536 2 19.15135042099236 0.46967278666290885 16.430930238739098 -2 -2 2
163 1 5.232104294305674 3.890913953498459 12.09359742784168 -1 0 0
994 1 16.04356823101616 4.147006644835018 11.444692685409944 -2 0 -2
720 2 5.29119455696444 8.904645615617126 18.266867854631386 0 0 -3
442 1 7.615247056179533 3.345028776866656 18.61983718596652 2 0 -2
837 2 18.89694851763173 8.39922125928495 14.250954919561192 0 -1 -1
427 1 13.219787972605305 5.988614373580823 18.951389120718805 1 0 -1
717 2 15.893658783832931 7.277496101392375 16.08058056132441 -2 1 -1
958 1 1.793041546628949 8.256869587566113 12.508396944692008 3 1 1
571 1 17.43086728012387 1.830197039258944 19.415409807623472 -2 -1 1
7 1 8.501822145684448 1.1893045237569377 20.160252830686897 0 0 0
986 2 16.1439622981174 7.292540490508335 19.235490272817945 0 1 -1
212 2 7.432730796566259 0.47220064585904037 12.668486821394808 0 1 -2
842 2 4.496709715418396 6.333078760014523 16.805827139818547 -1 0 -3
468 2 8.97715962458788 7.719841198185542 15.218662698159704 0 2 -2
356 2 11.911378116932147 9.085054190733446 19.760830790751292 -3 2 -2
991 1 2.0486485362116285 3.251508761044833 14.968327975557155 1 2 0
361 1 11.797316692681422 1.8607122349026055 18.038268641308356 -1 1 -1
752 2 6.249296545644513 1.2817129312197322 10.758620258302898 -3 0 1
45 2 19.396303766298356 3.55990242602031 11.231288390220634 0 0 0
178 1 2.1949815125699614 0.710871689959028 18.471086380309455 2 2 1
154 1 3.667556050375034 10.147989512067273 13.339633177213388 -1 2 0
688 1 3.82966244067175 3.980967503206795 19.010099555221352 3 -1 0
563 2 5.070658568309484 4.169865389212091 20.01805260621191 -1 2 -1
141 2 1.8930629461681219 1.029347557860767 12.614581374724823 1 -2 0
363 2 11.092673563336366 1.2353176708537865 18.14434098043657 -1 1 -1
590 2 10.259673691916163 4.987803601715765 15.173195414031193 2 0 -1
362 2 12.593577055418232 1.4960596517809204 18.426541784209117 0 1 -1
155 2 4.263977392451773 9.852094448316043 12.593825917348942 -1 2 0
55 1 14.82952621774356 2.617777068103254 17.628427714825005 -3 0 0
746 2 20.30338460519962 9.143134277761979 19.911528117005595 0 -1 0
718 1 4.8759437314860845 9.76792432801156 18.103805470000214 0 0 -3
140 2 2.3746535612964954 2.3196187779837922 13.283436257011031 1 -2 0
751 1 6.097229832678783 1.2722371984889485 11.720784457890506 -3 0 1
738 2 9.40947731820521 5.77739093099531 17.0663524666278 0 -1 -3
228 2 16.551288687824233 0.45069502573696674 19.849272842333626 1 0 -2
129 2 8.54293836121519 4.334266790184322 11.793664854587742 0 -3 0
440 2 18.320882937458375 0.16288611165437833 12.768003525127186 2 0 1
331 1 20.041351542706018 7.463036426029019 13.416008692727003 -3 -1 -1
802 1 14.020254898929355 2.558375446325412 12.179110838139698 -1 2 -2
747 2 19.74297757017853 8.764331106730182 18.443961451455728 0 -1 0
200 2 16.495529429505197 9.98797881878915 12.581976275135311 0 0 1
333 2 0.32013535085917955 7.818262414748824 13.21271335406782 -2 -1 -1
881 2 16.343092430262708 5.147852141126698 18.128470691755304 -3 -1 -2
454 1 6.185331950392111 7.880632790384083 14.168628649758347 1 0 2
995 2 16.841517999053945 3.8813796301549663 11.922489352656855 -2 0 -2
984 2 19.503910747492757 4.812076929175995 14.963084541311636 2 3 0
467 2 9.566290946067474 9.056755808378888 15.535956113504014 0 2 -2
191 2 7.58744176634951 7.534994354699233 19.23191425191406 1 -1 -1
313 1 1.8030903697245453 8.843126672480924 16.917217886292182 2 1 0
635 2 9.293479521261757 6.214229989656442 18.85354526774617 0 0 1
27 2 12.498907990518164 4.765318971415729 19.720700120288313 2 1 0
883 1 3.861445064400703 7.52981473648968 15.568409723708355 -1 1 2
26 2 11.839080963628152 3.284641090040158 19.105400834509762 3 1 0
466 1 8.812996361193795 8.636510209411806 15.04755248258379 0 2 -2
135 2 19.421293672651395 7.0604121319399455 17.082651186682874 -3 -2 -1
880 1 16.59638258821455 4.476553555578924 17.446894680451493 -3 -1 -2
858 2 4.185967412198056 7.2515966392133295 10.36125656349835 0 0 -1
360 2 11.728582296086543 1.1754393376988839 14.9291859648009 -1 2 -1
358 1 12.318280980707573 0.6902547333759657 15.48899108270433 -1 2 -1
743 2 5.7331133044937586 6.873798572095742 18.311121165522145 0 -1 -3
509 2 19.964940276736055 4.6650971801131975 16.99789239814636 2 2 3
190 1 8.590367466302972 7.4894420814931095 19.46994351856941 1 -1 -1
381 2 11.337243231127182 5.478628897043658 11.864035070726878 2 -1 0
456 2 6.141959039227927 8.232341057167067 13.230944669121108 1 0 2
378 2 9.347674929207132 8.479862510759567 11.753849115759941 2 1 1
379 1 10.536343955109542 5.280202478579127 12.333194189318943 2 -1 0
731 2 10.813387437264176 0.550501636941589 10.500114468530702 3 1 -1
715 1 15.310616087320554 8.037627963807019 16.425989334582766 -2 1 -1
830 2 18.686069714462352 3.874718458422864 13.253377768651516 -3 -1 1
788 2 13.574691708628961 5.486504249899416 12.0937206187668 0 1 -3
589 1 11.024347102334374 4.510591215842308 14.706685018214879 2 0 -1
739 1 14.487207317791148 0.5774474053323642 14.339331196716529 -1 0 0
463 1 13.247279670794294 4.386050249638973 16.492525222062227 1 1 -2
594 2 15.055907807369602 5.643125035850902 13.935203740295703 -1 2 1
57 2 15.279835872606245 1.8514345020955492 17.2686157390312 -3 0 0
945 2 2.4050664104847685 7.818325356164347 18.227552088814637 2 -2 -2
224 2 20.47711490509332 10.20264196059211 12.204502465220132 -1 1 0
344 2 9.699482898150842 6.34440988931405 11.428111438060212 2 2 0
983 2 19.58190835401441 5.963795993311582 13.865565096372901 2 3 0
192 2 8.643436031034495 7.171792468862792 20.404698134699174 1 -1 -1
655 1 16.42561588397988 7.128083183358521 11.526528807519014 3 0 1
128 2 6.977710888623106 4.041218697098247 11.55282524106003 0 -3 0
429 2 12.81350427388939 6.8380431543457245 18.82689985535701 1 0 -1
25 1 11.68339260198179 4.118333311487968 19.715359843953355 2 1 0
829 1 18.27679392318421 3.218273532386084 12.564947180609837 -3 -1 1
211 1 8.15316800026587 0.07843566227958496 13.195156153729016 0 1 -2
257 2 9.374189031908285 1.6539912116985895 14.149358053212964 -1 2 -1
334 1 13.037693023916976 7.959910174441594 14.967145514689353 1 2 -1
777 2 6.40743656605832 9.907464967516853 11.537824287719669 -1 -1 1
492 2 17.544164787992216 2.1636356044977383 16.23328830877152 0 0 0
336 2 13.00304207143436 8.50781897694256 14.14975486224697 1 2 -1
996 2 15.381761543920504 3.527840815108911 11.900494637339584 -2 0 -2
131 2 3.004078407885728 1.8568695976231944 10.982473470528353 1 1 -3
164 2 4.615086945055972 4.309623859834082 11.451917876052287 -1 0 0
697 1 3.5808334473825796 2.478427111024429 17.11788242860174 -1 1 0
572 2 18.289927567057696 2.002496738129164 19.796116681765568 -2 -1 1
4 1 11.142142496085286 9.46843356295046 16.192660655600843 -1 0 -1
698 2 3.186239657950196 2.765849980721411 16.26699166674967 0 1 0
201 2 16.132648591219443 8.492554569827202 12.405778119332911 0 0 1
335 2 13.197592862515723 7.0290885255700015 14.767859186584072 1 2 -1
593 2 13.78820960434069 4.8750311769361385 14.538390224892026 -1 2 1
985 1 15.712881464736563 6.683456007769206 18.61254884728883 0 1 -1
982 1 18.970963392594086 5.201799679349197 14.225558433714607 2 3 0
992 2 2.587091586156432 4.0105943019536126 14.6951477643286 1 2 0
306 2 18.112198129927854 5.113234345801577 17.852624797968186 -2 -2 -1
699 2 4.534995359433881 2.400803549270839 16.95079561123315 -1 1 0
439 1 18.69147725155677 0.9020712961508757 13.360956595046595 2 0 1
971 2 9.7283605978178 8.81274471269942 19.036293820045188 2 -1 -2
556 1 13.3438211977498 9.5893670932696 12.963009795410075 1 0 2
9 2 9.33434805107818 0.6946923049015626 19.874392720327684 0 0 0
776 2 5.280170631125199 8.856990743153382 10.882374594997286 -1 -1 1
558 2 13.281695189408888 8.905846375783716 12.245955572670129 1 0 2
770 2 6.858844988979296 2.3660204869148425 13.544172313909463 3 0 0
592 1 14.059735227041283 5.519532771517126 13.783343147880556 -1 2 1
689 2 3.0270776903397336 4.420005211044986 19.25514051866798 3 -1 0
56 2 14.836955600530697 2.5657122170824795 18.638110889028066 -3 0 0
508 1 20.260142452451305 4.105329445261908 16.184621704924837 2 2 3
835 1 18.187945447230998 8.860573558087307 14.696270811180813 0 -1 -1
831 2 18.453160803866517 2.2688027537968436 12.822884211301481 -3 -1 1
199 1 16.04441334897025 9.262228205250299 13.027656302340041 0 0 1
960 2 2.421822945729359 8.866664813112259 12.914894404830225 3 1 1
139 1 2.6782824975756028 1.6338903562199683 12.686665431662778 1 -2 0
428 2 14.22927251696983 6.166676135349737 18.996517132119067 1 0 -1
787 1 13.079492445528116 5.4783767887566 11.239187072843853 0 1 -3
595 1 16.91502345866741 8.270089876117556 20.281733347474905 -1 0 -1
557 2 14.288762548420065 9.598079029244737 13.17541205498256 1 0 2
180 2 1.2513717406651101 0.5742673521120415 18.292537736849198 2 2 1
732 2 10.717672585923372 0.5875795849656748 12.0908613505295 3 1 -1
438 2 15.686141277564767 2.249274488272127 14.598225567907557 0 0 0
737 2 8.285040209612335 5.647389019756688 15.939255878152226 0 -1 -3
165 2 5.2588920892658475 2.9411975047564805 12.004733511864975 -1 0 0
753 2 5.3704277212919225 0.6199553802822447 11.858009273901471 -3 0 1
351 2 6.104366283209525 5.469814605825749 16.102962808161017 1 1 -1
134 2 19.091414472918487 8.318270071494938 16.085465069786675 -2 -2 -1
222 2 10.79353888055666 10.256145465639054 11.779611194846401 -2 3 0
441 2 18.88905716367667 0.6022346216975469 14.275321893380971 2 0 1
78 2 2.4308875387924544 5.568314896580145 11.06272144524466 -1 -2 0
343 1 9.37718462232683 7.118173163758063 10.896686012422377 1 2 0
964 1 3.5416376695668785 5.372759543938174 14.225523885444717 2 1 3
77 2 3.1517826999124794 5.728669129297114 12.5891858491388 -1 -2 -1
741 2 14.478930427642359 0.9622130159417374 13.438669525524771 -1 0 0
740 2 13.52354830306642 0.42431598418401056 14.64052442456984 -1 0 0
76 1 3.1169820856668533 6.066111092980923 11.648176702417306 -1 -2 -1
680 2 19.905965456274394 0.342611163701555 19.317050914549704 0 0 -1
179 2 2.5158258578161736 1.225714382715808 17.70468825671118 2 2 1
315 2 0.8430906817320066 8.627341113540613 16.67865089557285 2 1 0
771 2 6.902286291748819 3.811611044839948 14.37244726668892 3 0 0
350 2 6.520697076272465 6.113555010568005 14.76981331746501 1 1 -2
789 2 13.175617846067977 6.368310361587193 10.908206889751407 0 1 -3
690 2 3.6236764876466894 3.1526083795647426 18.434190801877268 3 -1 0
359 2 12.367118935541345 1.2032885203088062 16.349343931537486 -1 2 -1