LAMMPS data file via write_data, version 8 Apr 2021, timestep = 200000

6144 atoms
2 atom types

0.01549604084239692 59.89293833979025 xlo xhi
0.06254732415389086 28.277918675845985 ylo yhi
0.11026435042011634 27.30118064957986 zlo zhi
10.270072773828984 10.165537213079732 7.171540337531307 xy xz yz

Masses

1 16
2 2

Atoms # atomic

1 1 7.536106253900599 5.475733708344155 4.186693363477271 0 0 0
2 2 6.85090034282159 4.781633327885858 4.00663167482966 0 0 0
3 2 7.04330603710646 6.240340506813849 4.573008854563662 0 0 0
4 1 10.145012172469025 6.788921540568611 10.83892662390667 0 0 0
5 2 10.760054380447826 6.476375810033521 11.546573327439264 0 0 0
6 2 10.010905991562622 7.6790773583376115 11.170428953098913 0 0 0
7 1 9.77031384912715 12.295074508714306 3.9965019639163817 0 0 0
8 2 10.2479772066388 12.045519609495003 4.820250442219447 0 0 0
9 2 9.393893174700661 13.156144647580351 4.221193900083746 0 0 0
10 1 12.60248110260921 14.281095983385438 10.832580604350355 0 0 0
11 2 13.233275107772888 14.40243481205394 10.09997909997882 0 0 0
12 2 11.907599146860528 13.736302034464643 10.440895782021478 0 0 0
13 1 15.158103525257776 5.003549572560075 4.1674679432988615 0 0 0
14 2 15.519416991563332 4.646025519926746 5.015817370661595 0 0 0
15 2 14.821115270318172 5.851390767662086 4.413969601153658 0 0 0
16 1 17.8808922380163 7.187985730244358 10.722050931603805 0 0 0
17 2 18.078255786638636 6.685644002687408 11.51021418100278 0 0 0
18 2 18.769087989213425 7.375798884823528 10.298095716037128 0 0 0
19 1 17.34687553944007 12.563104791091108 4.12066720356908 0 0 0
20 2 17.99474056695768 12.661707582498872 3.37431224178004 0 0 0
21 2 17.721592820106224 11.967314914622472 4.816255908660767 0 0 0
22 1 19.99672098896036 14.265245910171986 10.688035742275858 0 0 0
23 2 20.756913377484242 14.50248355099356 10.134772641048862 0 0 0
24 2 19.65750798241793 15.033748876062042 11.211541868354198 0 0 0
25 1 11.850436169424757 8.123104711456453 6.471482916934111 0 0 0
26 2 11.018751817971763 8.48273772740016 6.071594103128986 0 0 0
27 2 11.595373458992084 7.325285064562868 6.9789756206703 0 0 0
28 1 14.185894642927774 10.066345510064872 13.13165234446713 0 0 0
29 2 14.559326409458095 9.443661720698765 12.477684484097997 0 0 0
30 2 13.430738823864063 10.447696935686748 12.652570503835376 0 0 0
423 2 34.622408670838844 8.808984275896544 7.275730628855101 0 0 0
32 2 14.215567138435564 14.62513260085187 5.716271213398463 0 0 0
34 1 16.709128162676553 16.88021401471276 12.912850535165703 0 0 0
113 2 15.946223006267623 6.554363458276841 13.460745609168068 0 0 0
37 1 19.187412435772647 8.272685570072198 6.2445542244233225 0 0 0
38 2 18.57214150782035 8.872506433161458 5.752612574501492 0 0 0
39 2 18.667639233802024 7.7728973265783345 6.888546745872852 0 0 0
40 1 21.527933642532826 10.016735460657447 13.304137918580432 0 0 0
126 2 6.0403229216587935 3.526590557207027 11.486640470804637 0 0 0
42 2 20.8830884893204 10.626825910238283 12.980437222879976 0 0 0
43 1 21.48471164346141 15.252185568619593 6.274907436381158 0 0 0
460 1 18.857203918003655 2.586619131426397 7.3671063980722025 0 0 0
46 1 24.003662095121065 17.13856268533303 12.7413036300993 0 0 0
2672 2 9.220636738098207 4.9715829173697745 18.247079084316173 0 1 0
45 2 21.844269227461506 14.67806946805755 5.544648047693723 0 0 0
49 1 5.511238967268479 3.962077370757477 3.179334786950357 0 0 0
50 2 5.5339211655607246 3.0195707574761976 2.8697472983742105 0 0 0
51 2 4.865879689627397 3.854410553832338 3.875848783377317 0 0 0
52 1 7.815077151524395 5.694092420825251 10.055788227763918 0 0 0
53 2 7.575807081362004 6.090702043326263 9.193251895353434 0 0 0
54 2 8.606180457918272 6.240717911032758 10.28923915863321 0 0 0
55 1 8.115982051142856 10.745458512761612 2.7386368254578657 0 0 0
56 2 8.395962971605577 9.867918945780671 2.4786149911910966 0 0 0
57 2 8.771440109023615 11.17742863375149 3.3172892756559174 0 0 0
58 1 10.448408022231934 12.48735633718038 9.736617452418473 0 0 0
59 2 9.968504899915605 12.932302667666583 8.913273808488391 0 0 0
60 2 10.820417750306566 11.681112871582718 9.216694746686047 0 0 0
61 1 12.947832163716292 3.6505689332554314 2.9765180337684263 0 0 0
62 2 13.7530449421488 4.032162089307071 3.3931201386696044 0 0 0
63 2 12.668232351765035 4.143839151542046 2.1970246772453947 0 0 0
64 1 15.563638226966326 5.53794780126537 9.808866469253953 0 0 0
65 2 16.37933850133343 6.035211711089333 10.055861434453435 0 0 0
66 2 15.809867877840485 4.702729718978507 9.27794326277522 0 0 0
67 1 15.082993918915394 10.623540132608406 2.9113064243355953 0 0 0
68 2 15.83681820233386 11.057578659335833 3.303056740525876 0 0 0
69 2 15.385804347399121 9.750388099500437 2.564380699311951 0 0 0
70 1 17.912514294369387 12.687005744482539 9.629917615208486 0 0 0
71 2 17.453552010713896 12.928854954835774 8.83404481027779 0 0 0
72 2 18.497822433032695 13.425171148319338 9.8473439521441 0 0 0
73 1 1.3070854059104813 1.0971325267048022 0.4825776523434755 0 0 0
230 2 12.354195240328908 0.7472227894449304 2.072454201707974 0 0 0
79 1 3.6932149390727256 8.121720799540615 0.48492793355299213 0 0 0
2142 2 27.11841998655112 6.3426604965825275 22.206657144736184 0 0 0
81 2 4.309759995975618 7.480580099326963 0.8615073682606978 0 0 0
82 1 6.612352131418321 9.75659301704505 7.654755041239004 0 0 0
84 2 7.433865872725843 9.312193807771953 8.007875361959067 0 0 0
85 1 8.570545637496833 0.8082536433598321 0.8614813019339121 0 0 0
87 2 8.471330081004862 1.281661559385744 1.7508197729675004 0 0 0
1765 1 18.24868368905128 4.723473459933112 15.172044973967678 0 0 0
90 2 11.505637513530866 3.2637819436808972 6.937406664976221 0 0 0
91 1 11.348051375033014 7.821133768054588 0.6893333606105866 0 0 0
93 2 12.040310711386855 7.264989117293254 1.0658050780126636 0 0 0
94 1 13.83262160418048 9.720573949857219 7.320879513835498 0 0 0
95 2 14.594359815680328 9.290824646922259 7.752798455896436 0 0 0
96 2 13.343076375968055 9.078811682001092 6.878898049938412 0 0 0
97 1 5.625482353034312 4.152415948789857 6.023682317366448 0 0 0
98 2 6.090987988943588 4.835320916172574 6.610040578749421 0 0 0
99 2 5.130331174013093 3.5848135484145915 6.644518463213124 0 0 0
100 1 7.808057485476474 6.089720899665263 13.106798252719742 0 0 0
101 2 7.347845003772625 6.705695056454167 12.521139814689706 0 0 0
102 2 8.492846328078196 5.597817639964247 12.521247284231304 0 0 0
103 1 7.9586212703835075 11.564230319579385 6.0690294455501155 0 0 0
104 2 7.45503190658936 11.932163709453471 5.320336122834307 0 0 0
105 2 7.307518861753656 10.979584454311299 6.565896560261224 0 0 0
106 1 10.096299499474801 13.449908893256982 12.767334184532649 0 0 0
107 2 10.43802678162617 13.977793395825646 13.594741194955413 0 0 0
108 2 10.832743851043222 12.775599335779942 12.630142862876664 0 0 0
109 1 12.735619769960406 4.312720306781827 6.411065306397794 0 0 0
110 2 13.397629362254532 3.738568923314375 6.03556350826039 0 0 0
111 2 12.566961434393722 5.012606913923112 5.750295878674149 0 0 0
112 1 15.64907862715262 5.8804179404877095 12.75357336432511 0 0 0
114 2 15.056618474564964 5.225544183843106 13.22615542997174 0 0 0
115 1 15.547173099796904 11.432407371635506 6.005566480913872 0 0 0
116 2 14.859124331794073 10.915263894667044 6.369161610625388 0 0 0
117 2 15.905160317932294 12.071865850260258 6.663771966413568 0 0 0
118 1 17.904578376594824 13.401509153433578 12.949918371270586 0 0 0
119 2 17.127202157499188 12.964223989057844 13.263871122870897 0 0 0
120 2 17.57841691313748 14.078536972774728 12.356442380306007 0 0 0
121 1 3.0033433993883767 3.0416566957047575 4.0378607334757755 0 0 0
123 2 3.436697161553289 2.189601570172384 4.409411969241191 0 0 0
124 1 5.600890329442843 4.260499538302171 11.036078279403732 0 0 0
125 2 6.387553193487863 4.672019920167327 10.54775430868517 0 0 0
666 2 35.277478139239285 8.295035784888052 10.223692744407389 0 0 0
150 2 10.178494837603433 3.6576413599212305 12.3994059798882 0 0 0
128 2 5.049941340053556 10.060808882454559 3.6701129667223116 0 0 0
129 2 6.60767601131077 10.442118988992267 3.7161673657427756 0 0 0
130 1 8.40061168268073 11.467448629965682 11.247900792073642 0 0 0
1698 2 22.262303241594978 7.075214808304138 26.30122228461209 0 0 0
132 2 9.055008223119943 11.907022069264013 10.682208662370707 0 0 0
133 1 10.820080555955055 2.367161379182445 4.393177255705869 0 0 0
218 2 4.944584708767705 0.948697548877913 1.8722765069910774 0 0 0
135 2 11.393245730792962 2.7549418983145215 3.6521809646267798 0 0 0
136 1 13.154044728794823 4.476341005951419 11.170454938956855 0 0 0
137 2 13.875457542897742 4.93136402282349 10.75455228401118 0 0 0
138 2 12.823956546995523 5.082267513856855 11.892114168159084 0 0 0
139 1 13.08053100166194 9.711722904164786 4.32128731416329 0 0 0
140 2 13.768866179170008 10.201392091309241 3.770892121070877 0 0 0
141 2 13.541162804271863 8.976026673886324 4.709686188796798 0 0 0
142 1 15.854011526297352 11.505648892030699 11.151265212444446 0 0 0
143 2 16.642867860607765 11.904957756779552 10.759543404333954 0 0 0
144 2 16.219151169597424 10.926091742758539 11.864814596132517 0 0 0
145 1 6.716051085483932 1.8067716814697485 5.512489800198248 0 0 0
2130 2 38.426891468756295 7.192533407999201 22.91151276351834 0 0 0
147 2 6.829901436703566 2.7727786243215244 5.682070831666464 0 0 0
148 1 9.420415763133596 4.151787489240455 12.010734399904681 0 0 0
149 2 9.755160169516644 4.435674430114383 11.109688262265031 0 0 0
3495 2 5.217124635678192 8.578279365653588 6.987844780063586 1 0 0
151 1 9.575805550972092 9.116765642734462 5.236786395895751 0 0 0
152 2 9.302029982860775 10.056752414522057 5.400516613719782 0 0 0
153 2 9.86737369191312 9.183314478154395 4.350441131543885 0 0 0
154 1 11.86104699360349 11.240783535698348 11.917144037743553 0 0 0
155 2 11.145359020571577 10.55672320526289 11.98515259437651 0 0 0
156 2 11.95572315042718 11.522532846173748 10.999685461305019 0 0 0
157 1 14.415686027493992 2.44551611447419 5.341191187027998 0 0 0
2070 2 30.091201008599985 7.319267111247542 26.035542429623906 0 0 0
159 2 14.591179088097991 2.5001118800928706 4.352240734272238 0 0 0
160 1 17.016348013603174 3.8474628810821256 11.556560770311354 0 0 0
161 2 16.44711396401702 4.652588314341113 11.660109949288426 0 0 0
2199 2 37.7692178337995 9.510530969431077 16.481958733102 0 0 0
163 1 17.10631890787447 9.293908039587542 4.981790523973434 0 0 0
164 2 16.562789976522815 10.059380981027246 5.381551092916707 0 0 0
165 2 17.26153431723488 9.545584316122378 4.0469104481039055 0 0 0
166 1 19.221772466486932 11.268260327334682 11.97120044315482 0 0 0
167 2 18.89995029741646 12.132644612689573 12.26715198338721 0 0 0
168 2 19.613113718478154 11.40822800674804 11.104771767169519 0 0 0
169 1 9.194356778095358 4.357079113290192 6.0757747923450465 0 0 0
170 2 9.569409951751618 3.549039441662714 5.7068858014406345 0 0 0
171 2 8.695124525715478 4.903649049458308 5.400244356888654 0 0 0
172 1 11.750564191207621 6.179761500145357 12.947985190962765 0 0 0
173 2 12.000907850872768 6.987765290196673 13.397126205499468 0 0 0
206 2 16.739753604188763 2.709781021975482 3.479750482882723 0 0 0
175 1 11.34178310376774 11.316730930459329 6.050439073744672 0 0 0
176 2 11.960628684342288 10.783280320310405 5.56307268632581 0 0 0
177 2 11.842370725625246 11.980306540227055 6.583170296543127 0 0 0
178 1 14.181147538663495 13.090681162565229 12.949234296361963 0 0 0
179 2 13.415419745771189 13.332065363446938 12.350269582743627 0 0 0
180 2 14.86855160669361 12.734677464016242 12.358284688447835 0 0 0
181 1 16.622768453249044 4.259052130483425 6.135549490189365 0 0 0
182 2 17.277034392205305 3.802831858302125 5.577184427608069 0 0 0
183 2 16.98114879632605 5.054373601317432 6.5630456873404475 0 0 0
184 1 19.045765292089815 6.134719470350946 12.987351426034051 0 0 0
187 1 19.173721487205796 11.458060393335593 6.000851402426497 0 0 0
188 2 18.76408424598263 10.945141606974282 6.744078913591317 0 0 0
189 2 19.45167805243289 12.282967922564586 6.406088030175888 0 0 0
190 1 21.353338237248433 13.333190962250663 12.91763509028786 0 0 0
192 2 20.743797657834644 13.440465511625014 12.161684972745213 0 0 0
193 1 8.202485033511296 2.3910831651514544 3.004429356996056 0 0 0
194 2 7.591244160356042 1.9106297273031774 3.5769799283227757 0 0 0
195 2 9.004557640551681 2.6550371378476636 3.47433292501825 0 0 0
196 1 10.960361053683846 4.354525902543283 9.655944167990258 0 0 0
197 2 10.832053490042178 3.641893509915645 8.967420381696611 0 0 0
198 2 11.89045771096884 4.1650898531246625 10.09759953163636 0 0 0
199 1 11.037188280877803 9.571527396903516 2.6825427764689564 0 0 0
200 2 11.057006901644986 8.888521901499207 2.0096169915623205 0 0 0
201 2 11.779506326575403 9.443281143227889 3.2893016366444083 0 0 0
202 1 13.461484943393975 11.37733684860063 9.592563563512886 0 0 0
203 2 14.244852079449464 11.193967887085316 10.140067855244702 0 0 0
204 2 13.379623436386815 10.606508306672637 9.054834737436018 0 0 0
205 1 15.906753255866946 2.615070142739767 2.959502646001047 0 0 0
207 2 15.88151970727844 1.7734249146204188 2.4838494530950377 0 0 0
208 1 18.528694770768737 4.180825279554146 9.603224163170683 0 0 0
209 2 17.921157865774884 3.8679548143689937 10.308530298624362 0 0 0
211 1 18.340247586813113 9.886014673814694 2.558196039196991 0 0 0
212 2 18.34724064866578 9.140277422887369 1.8884941710199508 0 0 0
213 2 18.3583946585776 10.673372673252493 1.9534714817693282 0 0 0
214 1 20.7018787051967 11.544259953934393 9.618082166209463 0 0 0
215 2 21.406063217438557 11.83874701855755 10.23206136191387 0 0 0
216 2 21.04405625155031 10.747451077514581 9.213103071252338 0 0 0
217 1 5.695653363041715 1.5394562425432592 1.9905814656038339 0 0 0
5031 2 9.556441421056197 11.050579472275976 19.193360396619575 1 0 0
219 2 5.994841146943126 1.745354267039136 1.122284131684461 0 0 0
220 1 8.115319044928462 3.116370346653608 8.880521475326608 0 0 0
221 2 8.210743907714637 4.018560158447654 9.328867491164452 0 0 0
222 2 8.60348204818169 3.2798950875043724 8.036471673862788 0 0 0
223 1 8.296366181491893 8.083981681823317 1.751319335800652 0 0 0
224 2 8.871030864468265 7.370400716891176 2.0522063393107897 0 0 0
225 2 8.56790540337491 8.19929521179211 0.8294739405340986 0 0 0
226 1 10.957402657084915 10.128742280078677 8.502423727809822 0 0 0
227 2 11.590834342014963 9.447044003093817 8.809119148554835 0 0 0
228 2 11.15481736042495 10.45474359026455 7.581724351806615 0 0 0
229 1 13.24955172134916 1.0891129722664878 2.0793142366780755 0 0 0
683 2 25.178594510500673 16.00271547273979 8.34521797454449 0 0 0
231 2 13.223133141019131 2.020101531308333 2.4345580679467753 0 0 0
232 1 15.561555220381562 3.332107794477374 8.458531400138813 0 0 0
3663 2 1.8889106362259787 2.872470794967734 2.9816708861672896 1 0 0
234 2 16.02514173058934 3.532213446558737 7.596055966372655 0 0 0
235 1 15.637254586810613 8.322929086108852 1.8933362995103502 0 0 0
236 2 15.919697126248593 8.688712813012238 0.9991016288271252 0 0 0
237 2 16.42609672954501 7.868750284193062 2.3402425156331814 0 0 0
238 1 18.242350957643485 10.103571872560213 8.478701400473907 0 0 0
239 2 18.909238661915918 9.397850816674596 8.620116579755594 0 0 0
240 2 18.182228912582666 10.822677861822102 9.085035258717825 0 0 0
241 1 7.214010686927098 4.673943187458807 0.7983681571260265 0 0 0
242 2 7.453925523925664 4.0128522960349855 1.4567012636220658 0 0 0
243 2 6.471633112765516 5.134566899541838 1.1845170169164558 0 0 0
244 1 10.251241603219858 6.198941642664838 7.802782480110537 0 0 0
245 2 10.536390279116356 5.676635499666057 8.59911040329369 0 0 0
246 2 9.78863888291102 5.563881716194411 7.24028273000497 0 0 0
247 1 9.834253236506653 12.078870253206446 0.9552650276451401 0 0 0
248 2 9.0781288837429 12.524975179282851 1.4478634726487285 0 0 0
249 2 10.190536643995909 11.360556161763716 1.4377521084249179 0 0 0
250 1 12.441944576179472 13.248418479506103 7.747939565183425 0 0 0
251 2 12.85056265453109 12.738793253391865 8.446149078443936 0 0 0
252 2 13.133024783843005 13.773312614276188 7.379308441105615 0 0 0
253 1 15.215708418614733 4.288813430226732 0.9673818960881139 0 0 0
254 2 15.631974042561616 3.6475077927146518 1.6199464964222245 0 0 0
255 2 14.603450529299892 4.866597021046528 1.3856797925719766 0 0 0
256 1 17.497357409129492 6.394567478751919 7.539462110708414 0 0 0
257 2 17.892132001903512 5.994546171827386 8.335835353144024 0 0 0
258 2 16.926491972523134 7.097058452622485 7.971147543007104 0 0 0
259 1 17.627960411123087 11.607192961112949 0.5463123490298801 0 0 0
260 2 16.925403173451272 12.116626294577653 1.0285283245794399 0 0 0
516 2 22.54067821818831 12.14420313974974 11.95876476623662 0 0 0
262 1 19.813255408676905 13.388651265690944 7.678012331654952 0 0 0
263 2 20.101260095689437 12.870018232117086 8.436311550531904 0 0 0
264 2 20.61442873998681 13.982805327269949 7.397305567592251 0 0 0
265 1 10.035728967880734 5.774808459020105 2.895713222639739 0 0 0
266 2 9.164817699538167 5.3948263361584745 3.207441549697224 0 0 0
267 2 10.425994165525747 5.192849790404639 2.2018694210354193 0 0 0
268 1 12.641147944615879 7.95392033506601 9.592675241769468 0 0 0
269 2 12.989385101698462 7.75688434689059 8.690151263120756 0 0 0
270 2 11.835340676743325 7.414408943757071 9.722165227565595 0 0 0
271 1 12.068605020853248 13.203569964283147 2.683640410341134 0 0 0
272 2 12.77215211917278 13.432094961954538 3.269518004276172 0 0 0
273 2 11.403308226553118 12.804105327811712 3.3126764114098806 0 0 0
274 1 14.819236487619666 14.834037587884438 9.266406371907207 0 0 0
275 2 14.662524130231494 15.675028440212419 8.78489189864641 0 0 0
276 2 15.518730918046579 15.00994791906667 9.9613456582361 0 0 0
277 1 17.335403610590433 5.96402809528123 2.737095639023062 0 0 0
278 2 16.429998840438408 5.653524957847235 2.9489497397205593 0 0 0
280 1 19.878105252502706 7.881794854310791 9.35782917934798 0 0 0
282 2 20.62406716732694 8.089038071904106 9.910864542999088 0 0 0
283 1 19.26904013974043 13.23646274339795 2.310528140651147 0 0 0
285 2 19.996124490915122 13.398643488000324 2.9854193815468717 0 0 0
286 1 22.128120052973205 14.957682814549369 9.354187070834781 0 0 0
287 2 22.855971678234535 15.207487765741487 10.054489057830581 0 0 0
288 2 21.74257609509216 15.768317850577931 8.97200226065904 0 0 0
289 1 5.737893631366051 6.85639666375831 1.8072870462459676 0 0 0
290 2 5.477683165140752 6.68759907992202 2.752690568755387 0 0 0
291 2 6.594744581416615 7.27193295293888 1.907109787769687 0 0 0
292 1 8.717681444051273 8.530385942134542 8.61673944171077 0 0 0
293 2 9.210814126191114 7.753652328157009 8.287262023489093 0 0 0
294 2 9.303120157990845 9.304055961878914 8.484955058203186 0 0 0
295 1 8.03761857487298 13.819143954972578 2.0733628900408743 0 0 0
296 2 7.5129498389209015 13.617863445505591 2.869181857849994 0 0 0
1665 2 9.99618136369179 13.439552392675555 17.20732620187937 0 0 0
298 1 11.184540500815018 15.578532958179846 8.643552183176869 0 0 0
299 2 11.529540904151453 14.75021858136641 8.335919409100416 0 0 0
1968 2 44.141958934865734 20.005273742629264 26.080696980516148 0 0 0
301 1 13.380707133851132 6.69152286288362 1.8385232084228766 0 0 0
302 2 13.171607337570569 6.729560920201618 2.773100959968239 0 0 0
303 2 14.238997383858154 7.097925907107533 1.614438869094708 0 0 0
304 1 16.15239638908127 8.624526239645752 8.57008614242043 0 0 0
305 2 15.871835672988032 8.562420042624964 9.510934126740507 0 0 0
306 2 16.924463826672017 9.261133184901555 8.642373417699298 0 0 0
307 1 15.835022131420823 13.709791659139267 1.84387159905389 0 0 0
2081 2 36.250870753106376 7.08330413868141 25.86373122733153 0 0 0
545 2 31.036958697536836 3.353159138023987 12.010173031661433 0 0 0
310 1 18.30480406410942 15.59697467101134 8.596654119142368 0 0 0
311 2 18.67997367333644 14.78960344268062 8.081702237024706 0 0 0
681 2 23.73143779709208 14.187632523004346 1.8287606947830064 0 0 0
313 1 3.8110802810498496 4.968538151249893 1.141391557900557 0 0 0
314 2 3.6456125833084423 4.2206792426354784 0.4910673337643461 0 0 0
315 2 4.461706985348973 4.589849992272751 1.8087556416967268 0 0 0
316 1 6.700921326078669 6.263926212966476 7.545673397542989 0 0 0
317 2 7.192203911786528 7.093818692094055 7.145308392936594 0 0 0
318 2 5.9551608665413465 6.701771670136401 8.025838291740982 0 0 0
319 1 6.404242761671842 11.793937507479923 0.7999862413396592 0 0 0
320 2 6.023452147011161 10.93003864832812 0.4046432956061977 0 0 0
321 2 7.016027770015225 11.56476883143175 1.54838785253619 0 0 0
322 1 9.081847081602499 13.48149667799169 7.572033189722849 0 0 0
323 2 8.471386525465165 13.946311957931673 8.195932993230045 0 0 0
324 2 8.564043365831647 12.75977105534741 7.2175560472239715 0 0 0
325 1 11.39559950741904 4.457147998457725 0.948547374044468 0 0 0
1626 2 16.922604099404253 5.899794753561545 21.300139088484894 0 0 0
328 1 14.086262162750824 6.455386526478728 7.547238790923938 0 0 0
329 2 13.515311913628535 5.666697980773151 7.283818021183202 0 0 0
330 2 14.592478563738988 6.186388905819281 8.319765976344694 0 0 0
331 1 13.62889074707486 11.449074317883385 0.9225057524536652 0 0 0
332 2 13.081897025511601 11.999580524802209 1.5283677005853538 0 0 0
333 2 14.276826007025432 11.146297009932201 1.6143415886244294 0 0 0
334 1 16.369650583918236 13.433340345737095 7.524029328514942 0 0 0
335 2 16.62043746583558 13.956623029828044 6.717246848069757 0 0 0
336 2 15.618109723146793 14.007544995761961 7.914063117576073 0 0 0
337 1 4.169432107163797 6.176820644768994 4.855066863001049 0 0 0
338 2 4.632903099194035 5.439384689794342 5.258081307483808 0 0 0
279 2 17.58371443389595 5.277523829142648 2.019213521687691 0 0 0
340 1 6.813715205618888 8.317087519835173 11.260641178216142 0 0 0
591 2 31.589294451798096 2.6717268606451885 2.8306659372612955 0 0 0
342 2 7.335542885993256 8.328953661999705 10.437559596518065 0 0 0
343 1 6.7193871472032844 13.276933123381665 4.29348227390462 0 0 0
1755 2 9.726985426069113 4.490795794236604 15.13193046191119 0 0 0
185 2 19.28156454976759 6.950950345860267 13.46567343642165 0 0 0
346 1 9.532202260484164 15.275354018492424 10.832297080201778 0 0 0
347 2 10.210728501477952 15.53552550005534 10.127996858395177 0 0 0
348 2 9.923918645277682 14.406717060302835 11.285934779343803 0 0 0
349 1 12.217548559971268 6.181535919284814 4.445802799927204 0 0 0
350 2 12.228788305448619 6.881555343962877 5.1232574305592395 0 0 0
351 2 11.304810961608057 6.069032889452161 4.091184812186569 0 0 0
352 1 14.68644951483227 8.14065562973776 11.462891949811313 0 0 0
353 2 14.940124979288166 7.2351705084592455 11.815676656373196 0 0 0
354 2 13.880644667729653 7.962148621337215 10.89412467829725 0 0 0
355 1 14.303937967414798 13.355935403369777 4.198982914437724 0 0 0
356 2 14.553952562258681 12.58476218314196 4.671699241547017 0 0 0
357 2 15.022289872214762 13.564847158612723 3.556390914389256 0 0 0
358 1 16.940912370187373 15.13710716954112 11.07794629078054 0 0 0
359 2 16.832699604711852 15.906129115369117 11.62085511434491 0 0 0
360 2 17.704744986947535 15.320214688120064 10.469685546860987 0 0 0
361 1 7.203834865207198 8.00533119144101 5.172122346921274 0 0 0
362 2 6.7157334978493655 8.773511424961779 4.961721352962643 0 0 0
363 2 8.134538084881719 8.299218928363453 5.136628944460885 0 0 0
364 1 9.844097834436935 9.439797450748062 12.103868110488275 0 0 0
365 2 9.193208156346975 10.130670156016315 11.748417444866336 0 0 0
366 2 9.506730664937958 9.085768580353397 12.967200215796455 0 0 0
367 1 9.532662899276906 14.830166134740466 5.110552352484692 0 0 0
2069 2 28.617942869387008 7.109472581648025 25.684119473905643 0 0 0
369 2 9.374036801171922 14.619402235131192 6.037183769882794 0 0 0
370 1 11.966451705758613 16.72718049163814 11.762922918098534 0 0 0
2205 2 40.53835398839652 16.95435079193465 16.941925703907074 0 0 0
372 2 12.152644308975093 15.857383246781655 11.388024841531426 0 0 0
373 1 14.832258048555968 7.5792362476554604 5.33332853880547 0 0 0
374 2 15.644838799374327 8.114521067391442 5.421265352574125 0 0 0
375 2 14.868634607250748 6.974482244061655 6.101351374158034 0 0 0
376 1 17.25603140717434 9.389887986889404 12.24922810999167 0 0 0
377 2 18.01201353783848 10.014125249399479 12.100176340509398 0 0 0
378 2 17.427581981805535 8.660252122136221 11.590044248800831 0 0 0
379 1 17.255031463281473 14.828264458876333 5.185996643190139 0 0 0
381 2 17.40994256294139 13.99849426052334 4.673992767613862 0 0 0
382 1 19.532175456366385 16.193096301652822 12.438007729862953 0 0 0
3494 2 4.617200938372922 7.618091993645358 5.984320002713525 1 0 0
384 2 19.527438213962135 15.90571860847139 13.358887256208599 0 0 0
309 2 16.433700806182507 14.47666101877348 1.8902440736251003 0 0 0
680 2 22.362130516930808 14.056418107584706 1.210403069982512 0 0 0
210 2 19.385784337261143 4.466937540926813 9.995758352558884 0 0 0
284 2 19.590806592892882 12.68158265512293 1.561356974228815 0 0 0
1611 2 6.6250093437955915 4.800101288306905 13.682264955873823 0 0 0
1722 2 13.44690494777385 1.7180856189029532 0.1538540611661854 0 0 1
74 2 12.023513097356085 8.931073160988785 27.201946696671023 0 0 -1
546 2 32.49765557875704 3.8796969280314486 12.514818171663698 0 0 0
468 2 20.657583381750666 9.18769531856887 6.778041429587513 0 0 0
512 2 20.21794264724533 10.561275216322816 4.802384612018759 0 0 0
2219 2 30.423599633423173 19.376978213370815 21.725382066508725 0 0 0
174 2 11.192893272436288 5.670782812327347 13.561438970965531 0 0 0
261 2 27.270235230781903 18.1988021448802 27.119255586245195 0 0 -1
186 2 18.672464010843623 5.501892732213519 13.679830302062388 0 0 0
92 2 10.729899044053383 7.129595547020389 0.3529668909399858 0 0 0
722 2 18.502676097474207 6.03734339918051 4.119318471165196 0 0 0
1617 2 9.087779276341452 12.084613435954624 13.466820323494138 0 0 0
86 2 9.076295914081363 1.564217791585651 0.4758265364701596 0 0 0
1857 2 11.403926321548962 15.812310731019963 13.721795404202165 0 0 0
1537 1 12.63034575554197 9.056654623852893 17.62844835358088 0 0 0
1538 2 13.127778208911051 8.674577893094199 18.3922728372535 0 0 0
1539 2 11.990304719273402 8.441666008729513 17.32056562395149 0 0 0
1540 1 14.985316202462391 10.469679263446041 24.33766910523038 0 0 0
1541 2 14.821217044984897 11.416719061532522 24.495816289511247 0 0 0
1542 2 14.120802821523938 10.097718706011355 23.846608797956044 0 0 0
1543 1 15.118545020543598 15.84038537940367 17.543901799938425 0 0 0
1544 2 15.45939090483946 15.231170833037885 18.248677993963234 0 0 0
1545 2 14.885424431353586 16.721620669632575 17.961714783312274 0 0 0
1546 1 17.3952260798684 17.641415743140033 24.406481364280857 0 0 0
1547 2 17.34393138783688 18.551192531905095 24.806428975684064 0 0 0
1548 2 17.81491520510781 17.21660395477117 25.180805807254483 0 0 0
1549 1 19.82396886130553 8.673626023030264 17.45093433000186 0 0 0
1550 2 20.69658844741702 9.092582311575972 17.089569245615948 0 0 0
1551 2 19.361656290789902 9.431415719376837 17.816300188217177 0 0 0
1552 1 22.53060889672064 10.487499484372881 24.29999011177909 0 0 0
1553 2 21.697048602151018 10.078911457524852 24.095119619926507 0 0 0
1554 2 22.86896214103692 10.15830837077466 25.151369256184122 0 0 0
1555 1 22.505712565571276 15.788376116393744 17.844728713501702 0 0 0
1556 2 22.255853211963775 16.72700258932915 18.04651743576061 0 0 0
1557 2 23.387687313219715 15.910859596318002 17.312435812118395 0 0 0
1558 1 25.103354955122036 17.66169328587239 24.430040302249253 0 0 0
1559 2 25.782184717201083 17.763214587533383 23.73614484413243 0 0 0
1560 2 25.002347563655505 18.55910256296602 24.805292647717717 0 0 0
1561 1 16.66447230046865 11.713085732789837 19.832287997275493 0 0 0
1562 2 16.811227135526 11.096584774479092 19.13955985656085 0 0 0
1563 2 16.010104159311172 12.316179960298271 19.438305114671184 0 0 0
1564 1 19.264712597357676 13.411367930765287 26.598904979138922 0 0 0
1565 2 19.557859974393644 12.919055149547914 25.788910074244264 0 0 0
2136 2 41.555183965249235 15.11788082823191 23.789290200639016 0 0 0
1567 1 19.139258220280386 18.462953131781138 19.866082104501704 0 0 0
1570 1 21.779995347940435 20.53010893607843 26.73618727875675 0 0 0
1573 1 23.918747682079697 11.703534628658195 20.06411539642562 0 0 0
1574 2 23.13646658843021 12.165117270524135 19.785976281627544 0 0 0
1575 2 23.62218708841432 10.944535396412688 20.669274589298677 0 0 0
1576 1 26.672428035032567 13.382824158137366 26.85810505396587 0 0 0
1578 2 25.835088338409147 13.867682921626873 26.611564173185233 0 0 0
1579 1 26.790608545426323 18.90844905366995 19.899473504824776 0 0 0
1582 1 29.146152164393087 20.776564585622797 26.8397696673695 0 0 0
1814 2 22.392343774745875 9.265810565035503 15.733238139107938 0 0 0
1585 1 10.234685579798532 7.3629908012716525 16.440388601928905 0 0 0
1586 2 10.372305234328449 6.562416619694345 15.880294252123688 0 0 0
1587 2 9.739529493370073 7.9874934839218446 15.897300236268473 0 0 0
1588 1 12.858476160805736 9.29260929248054 23.166116590668793 0 0 0
1589 2 12.546737906979551 9.737839632951548 22.29618431555266 0 0 0
1590 2 13.02133951319805 8.338899257167924 22.884065783324495 0 0 0
1591 1 12.791854733505222 14.572625822950277 16.34190193638554 0 0 0
1592 2 12.245193037516218 14.47895419649579 17.118036464466307 0 0 0
1593 2 13.672454516313465 15.040686304011148 16.623779127241725 0 0 0
1594 1 15.20161819458867 16.190642694780262 23.084890136925676 0 0 0
1595 2 14.491090972994792 16.007029469617777 23.79703401178719 0 0 0
1596 2 15.960416305120777 16.62143366228518 23.547955763854517 0 0 0
1597 1 17.73178336896519 7.079360065042225 16.42490081080291 0 0 0
1598 2 18.477915340117388 7.58540588975852 16.683041059073727 0 0 0
1599 2 17.235254336372993 7.600643089102711 15.666754306643265 0 0 0
1600 1 20.244772253797485 9.060787487166971 23.230863345300616 0 0 0
1601 2 20.468997561273028 8.274627810510074 22.71921159322144 0 0 0
1602 2 19.456159275024064 8.783156664500332 23.79666419683304 0 0 0
1603 1 20.446103246203307 14.40671003274364 16.732361637549566 0 0 0
1604 2 21.222018069908554 14.880093301774242 16.973015881940377 0 0 0