LAMMPS data file via write_data, version 8 Apr 2021, timestep = 0

6144 atoms
2 atom types

-2.4659067858431074 62.434195917025576 xlo xhi
0 28.152921949757506 ylo yhi
0 27.211960687361675 zlo zhi
10.169583686732992 10.19432531684133 7.124565977349029 xy xz yz

Masses

1 16
2 2

Atoms # atomic

1595 2 24.46446709083037 24.789894851519676 26.79791933740552 0 0 0
1604 2 22.29835884796682 14.146636963672014 24.858835933092223 0 0 0
2431 1 16.42620886237193 21.935619382959924 19.605294990039972 0 0 0
987 2 17.446261979896267 6.297298907342908 17.60477673694583 0 0 0
225 2 4.2648387373514804 0.22181966745410675 0.3748116325577596 0 0 0
1899 2 14.889145912501682 29.371975164299258 24.037859635260702 0 0 0
1080 2 6.054557760354691 20.776787678821627 3.5578482425930424 0 0 1
1625 2 18.19589568141893 18.151127426527065 14.467070001463044 0 0 0
2464 1 12.34563316961146 22.048318356877903 2.8807877531057295 0 1 0
150 2 7.291679811074588 12.455888164494073 16.888265883819088 0 0 -1
1633 1 18.826535586354506 18.844606735718298 19.135911971681622 0 0 0
849 2 15.118433656500947 17.76550283834156 12.264285658474643 0 0 -1
1906 1 4.846393992457531 10.609685832447102 4.445246978066877 0 0 1
785 2 15.822539689420768 30.249881855264487 11.585732417291792 0 0 0
2466 2 12.312556090425982 22.55114111695821 3.7376908349187996 0 1 0
481 1 10.34055943677734 12.855182381823125 26.184812044212737 0 0 -1
5029 1 10.98835247268919 13.867447046649277 17.092343495990267 1 0 0
1634 2 18.76418801867039 19.726243128345185 18.57486414803646 0 0 0
1064 2 23.45103826047062 26.284085903026615 21.677959277270226 0 0 -1
294 2 4.263834721563052 13.611936661370057 3.051122506385824 0 0 0
1896 2 17.06513047929772 25.49811395665491 7.486634835348796 0 0 1
1916 2 24.92577952468316 26.328970105179458 24.907428355547168 0 0 0
3503 2 5.071798963769291 7.557059928777325 9.319750371450436 1 0 0
1709 2 12.885272965962209 8.907792449813623 19.007216977845626 0 0 0
2323 1 7.628631548203063 21.357130697826715 6.823476045944027 0 1 1
3666 2 11.72784326643302 29.00762787466749 10.848200000203828 1 -1 0
188 2 19.933679322871896 29.52200319202665 15.70666966830503 0 0 0
1918 1 21.59681199691516 19.47222838869104 20.594287310678638 0 0 0
1665 2 10.035486278360388 19.00526402421583 14.382893452017376 0 0 0
2564 2 13.541663093738428 10.050901698930264 5.134522006640206 0 1 0
221 2 10.07476300646039 13.002059520311633 24.53891250157319 0 0 -1
1871 2 18.431271300613467 26.323323050080965 23.485944682125737 0 0 0
1913 2 7.907602863082704 23.645452122675287 2.150331659267558 0 0 1
1017 2 18.71912661959284 30.666468832950706 23.96118105363251 0 0 -1
1803 2 12.522011703662518 24.016994297106024 19.421748721427218 0 -1 0
988 1 8.697595210251762 8.898675324419704 14.411545571267215 0 1 0
1708 1 13.166209354070055 9.840813185720377 19.21344159810995 0 0 0
2238 2 15.072975361089629 30.49613521459636 18.2817461276452 0 -1 1
907 1 23.719059981777253 20.682987494550805 22.986212705583256 0 0 -1
99 2 10.603681814037934 6.530025499479584 1.458444459010943 0 0 0
1135 1 7.254831719842145 8.85159594503865 17.91405830102613 0 1 -1
1901 2 11.243925488947948 26.44252565277527 2.669073084317537 0 -1 1
825 2 6.550194572789649 13.802554964792316 12.572708575303126 0 1 -1
6024 2 18.277644760672825 32.85068562098243 24.15547417257396 1 0 0
924 2 15.93394128807401 10.930476203760918 13.292950019132492 0 0 0
1650 2 7.208081281417905 16.887405437168677 10.623178528101958 0 0 1
224 2 5.1025499430363634 1.0938155207519742 1.3163800455444594 0 0 0
2597 2 14.763764875460772 20.200349093820552 22.810133447492127 0 0 0
1710 2 12.637090134150984 10.086584193589035 20.025959889923453 0 0 0
1689 2 13.178098100189377 5.1544062265797255 6.396330624967118 0 0 0
1705 1 16.289574566007914 24.71682191127102 14.346772872785627 0 0 -1
4508 2 8.022966714586659 11.50673357527774 20.723053089671946 1 1 -1
3711 2 9.027458180840718 27.115463808112345 2.940547856531016 1 -1 0
1570 1 19.395267739215246 23.916736717401665 16.44049586753078 0 0 1
2314 1 8.932069224411041 4.584200997884912 16.813476329464784 0 1 1
1129 1 12.116383555284656 14.636970272283403 26.93536527513715 0 0 -1
105 2 13.878936223704848 14.86874500589908 2.389560505003348 0 0 0
1635 2 18.372181119343747 18.93853260600268 19.992723773120378 0 0 0
2359 1 15.785717630957564 12.424493174276918 4.0826773861837715 0 0 0
1585 1 9.529694864102328 15.450724438588756 12.307416196314872 0 0 0
896 2 16.67937232395324 27.957341504102004 26.620501062384957 0 0 -1
1059 2 12.241881843013164 28.851923270171476 5.15009300410913 0 0 0
57 2 16.725660043925075 19.211823845060607 15.37491911348028 0 -1 0
3710 2 10.096550259317066 26.811871176167884 3.942243561328933 1 -1 0
2389 1 11.479384628149575 17.424904596255406 1.0337613061882334 0 0 0
1571 2 19.192185234535774 23.57569655552282 15.537543457512786 0 0 1
416 2 12.161367403487791 16.87134816576218 20.655704393254084 0 0 0
894 2 17.152887282941865 27.973100026171384 20.318182279867848 0 0 0
2627 2 21.16857377494143 29.520525457028246 22.65524975238165 0 0 0
30 2 25.956953556785482 30.106269134541446 13.915916657343155 0 0 0
218 2 9.19719237706985 24.514593940511915 7.265891147664376 0 -1 0
2523 2 14.172156574665134 27.642669047759775 14.981907716635632 0 0 0
1063 1 22.86377564583673 25.618304170959778 22.081825980718953 0 0 -1
2340 2 5.151787964849362 4.179045077893363 14.57452486861868 0 1 0
114 2 11.346692901659893 22.66651704502473 1.6312843403445956 0 -1 1
71 2 9.48987958743745 11.417689305924412 17.760058421432348 0 0 0
846 2 18.41048010586211 19.215998016203564 21.95872667564508 0 0 -1
3502 1 5.186831458563094 7.481708545067584 10.282063099979297 1 0 0
1558 1 4.056698511894909 4.953743959735171 6.744603818899001 0 1 1
1740 2 7.4495797340163294 15.234592888718565 4.5588469818651856 0 0 1
334 1 14.851130663508915 19.738065157431492 19.7899430394638 0 0 0
875 2 18.6860463255423 27.638381010267583 9.93104284199227 0 0 0
323 2 7.568478111937229 17.476831931828762 3.9207432337298904 0 0 0
2465 2 13.272407311774096 22.18252410649181 2.530545705297761 0 1 0
5275 1 11.978445331938023 24.181479928933687 12.407964121504149 1 0 0
1912 1 7.654742888124159 23.231482145728855 3.051027583593122 0 0 1
223 1 5.177930919195601 0.6475129929193567 0.43125295172846495 0 0 0
1917 2 24.22762613504793 27.435709597696643 25.606487366534733 0 0 0
129 2 5.055268411642699 4.5210435919920835 5.267042032392174 0 1 0
2407 1 10.467097272657195 13.995510897390186 9.303807542595552 0 0 0
1687 1 13.788142781767473 5.680413026979428 5.812537860589205 0 0 0
986 2 18.494715400890676 6.715053790976459 18.597988586777657 0 0 0
1706 2 16.25214051853238 25.03690111495993 15.217179660572478 0 0 -1
2448 2 18.808587269465963 23.2061705226541 10.06090674808306 0 0 0
2596 1 15.643007239409123 19.917090142946574 23.09119803535814 0 0 0
1688 2 13.187988085200509 6.215070305673078 5.2415948544206215 0 0 0
132 2 5.330063550025493 12.14449296304199 1.02540840221679 0 0 0
1610 2 17.136792452404656 18.915879475956174 26.660298197928892 0 -1 -1
922 1 15.239180768419583 11.393461083652706 13.800061676877599 0 0 0
2409 2 10.608165157547859 13.347154766093043 10.009656228988193 0 0 0
845 2 16.852064023025367 19.16590100424581 22.123444641091336 0 0 -1
2507 2 10.887831778283882 19.259663293488074 3.3678920749576013 0 0 1
908 2 24.545057164833498 20.9134953926311 23.471839001816523 0 0 -1
893 2 17.511546874579913 27.918025493742196 21.830423013550604 0 0 0
830 2 14.669854219879742 20.791666309824688 15.734302343734004 0 0 0
204 2 9.05326503768713 9.26335837244335 17.798234682912085 0 1 0
824 2 6.883625884147889 13.636586029481819 11.077663482568951 0 1 -1
5034 2 9.376266267889484 8.612759798667602 24.71857797197409 1 0 0
706 1 29.053430037605093 28.36868698318171 19.414221341488982 0 -1 0
2414 2 14.564780355419536 22.11266336731534 12.64106374234017 0 0 1
3670 1 8.518691409010398 18.176152151579444 8.100461708410855 1 0 0
2441 2 18.859947009327485 15.524628083177785 12.67162853445648 0 0 1
847 1 15.854697556931285 17.135891155436436 12.426894309578444 0 0 -1
378 2 17.25069991034691 32.279516323285854 19.99678190943216 0 -1 0
207 2 16.452285616889352 13.950038145289074 24.229045049345004 0 0 -1
352 1 7.847012981007501 15.227698314008794 14.9768467832879 0 0 0
2688 2 8.392131058253248 8.660784442930032 7.071165584649297 0 1 0
195 2 20.706104956875357 26.891941465490948 25.005646064793122 0 -1 -1
219 2 9.568875951862378 25.30102196842558 8.625765696108433 0 -1 0
2330 2 3.5963365609204647 7.855397381498616 7.610604058946017 0 1 0
2320 1 -0.693483171431498 1.90301704171753 2.7248772702795967 0 0 1
2440 1 19.667575334575655 15.940687108057174 12.307518126912639 0 0 1
98 2 9.263004559282557 6.095819864683915 0.864881954411556 0 0 0
2408 2 10.922390434721823 13.611872876901204 8.482194857636792 0 0 0
369 2 12.041537420372993 16.920449757430035 10.786639210298258 0 0 -1
1065 2 22.503712104309137 25.051653585876345 21.387569979829188 0 0 -1
1130 2 12.82917931986412 14.023945038263232 26.681478450355 0 0 -1
820 1 7.641926011924132 13.14657048861894 2.7366619611069303 0 0 0
962 2 16.285424713253484 19.82772135898792 0.8253168306111504 0 0 0
222 2 9.611421439641969 13.677187450014612 23.18272086568783 0 0 -1
178 1 5.599440069601559 10.258730297442744 10.452554183836725 0 0 0
2451 2 13.848027272226581 25.974675141584562 22.0350433218711 0 0 0
626 2 11.835676495322865 6.420704123916849 9.0438584034178 0 0 0
873 2 20.03368221253827 18.00645571553168 15.683312795429586 0 0 0
2531 2 15.795496067046294 25.469491112475712 22.010871227410085 0 0 0
897 2 16.077175933048604 26.626973637841193 27.157368955259535 0 0 -1
1515 2 18.79637032129684 15.499076479880653 8.757023209670853 0 0 0
1078 1 6.380003736603244 20.87004354660907 2.633886107568956 0 0 1
1546 1 13.990507381760626 6.4137380036573415 24.02982566917933 0 1 0
984 2 10.134557223425748 9.681647555217834 14.91023227150597 0 1 -1
2432 2 15.959919644541841 22.801085154064985 19.365224299721024 0 0 0
909 2 23.44200700050398 21.468960704374016 22.49043042847457 0 0 -1
2668 1 25.042954844508955 33.20760425994417 21.996257110704526 0 0 0
2411 2 8.79492797310209 21.77944537301648 5.434855777112634 0 0 1
1881 2 6.790272918659613 10.97812524041919 15.151131494544163 0 0 0
415 1 11.484785734123744 16.951524007183917 19.914568789413348 0 0 0
112 1 11.121787429078154 23.431023132653625 1.0557714569235201 0 -1 1
1132 1 11.428276771677528 9.247125015459963 10.79344725024665 0 1 0
72 2 8.657981451897228 12.13985792058162 18.735309312818355 0 0 0
990 2 8.563146996506134 7.958926328965293 14.6569122898197 0 1 0
1514 2 18.04952137574442 15.852067578175713 7.503782077434379 0 0 0
2552 2 21.80280783506484 27.530681148636948 19.152623408461032 0 -1 0
1618 1 6.299213406804079 17.022281690177433 7.032431657696726 0 0 1
961 1 15.479260154850529 19.909631870017567 1.3278976445202149 0 0 0
885 2 5.825868766729244 10.012049708909323 8.587138497434193 0 1 -1
2312 2 6.698391103784242 4.489575437689218 1.6976353337989765 0 1 0
2316 2 7.958057216594118 4.556631607332588 16.700617971270628 0 1 1
1567 1 5.839814180279467 6.635082389938384 13.598452263886115 0 1 0
818 2 17.46971278009223 22.30534931572269 0.03291247720828466 0 0 0
775 1 15.860122374218836 25.851771067369654 11.604584473776928 0 0 0
1603 1 21.672900652319637 13.89832804055379 25.6263675455063 0 0 0
4268 2 12.355129672036622 29.176990775312518 8.66154822714918 1 0 0
1605 2 20.735730074463564 14.167109340256857 25.314721459913194 0 0 0
1637 2 13.028324945143403 11.621117877045716 9.503733531806628 0 0 0
77 2 15.88389730984779 25.797619273277892 1.1849938796276192 0 -1 0
228 2 16.959909321184245 28.525365711661895 11.94830036886059 0 0 0
1877 2 8.378444947529573 24.825614164310327 0.051752344041776525 0 -1 1
2669 2 24.52790280102825 32.33779656773722 22.069841050226177 0 0 0
179 2 4.686311758508807 10.560732874024815 10.379356802523215 0 0 0
1666 1 14.684938342426488 17.03423922002187 24.08658460909116 0 0 0
1895 2 15.792746785056956 25.960943104385642 8.29960887948828 0 0 1
1106 2 6.617121535999996 20.109808446263877 6.199268550560583 0 0 0
194 2 22.151422569580294 26.30627984040962 25.003532053206307 0 -1 -1
97 1 9.674784383789785 6.375631804529863 1.6820619915853763 0 0 0
1062 2 16.01039426469108 9.129473539447467 26.67013333202518 0 1 -1
233 2 19.8913320724627 23.252520142223307 24.15870505056075 0 -1 0
1513 1 18.25481719456983 16.21167157609502 8.357706094206922 0 0 0
1589 2 6.102547428407974 16.842463307126344 2.0735746498516483 0 -1 1
963 2 15.045282936366554 20.754881948652397 1.09304795078236 0 0 0
1547 2 24.41491335041557 33.919637229518266 23.32052415126113 0 0 0
1700 2 11.741613348698191 19.831634043549972 20.948739174085144 0 0 0
5280 2 13.887512774969004 16.510262313761434 22.51632578189679 1 0 0
417 2 11.544287340980151 16.14013524950846 19.40180680412358 0 0 0
985 1 18.033988151571194 5.918635356575437 18.28426669952161 0 0 0
1884 2 14.598915914637772 20.882338460531383 6.594146661400423 0 0 0
76 1 16.454576289972987 26.159854445816833 1.8418451217922172 0 -1 0
996 2 4.808537706970456 7.903879915482156 5.724354407304262 0 1 0
1707 2 16.99066541193284 24.068171001195065 14.293660740679082 0 0 -1
1020 2 9.607536666938174 5.528185336970312 8.378731431045857 0 1 0
1879 1 6.540572238533124 10.111985285598106 15.419871768115426 0 0 0
6022 1 17.69383577502607 33.576842630018234 24.42234988094227 1 0 0
5031 2 10.171544704631899 13.355930313885063 17.36979485294034 1 0 0
883 1 5.81438171447068 10.198671651303172 7.645762615456676 0 1 -1
2442 2 19.912267614298557 16.5672444979199 12.964722565274249 0 0 1
1915 1 24.151047663724338 26.46622740458785 25.458424894143075 0 0 0
3664 1 11.792309701686094 28.326068369019012 10.023804466912173 1 -1 0
2315 2 9.060452836924028 5.284696719541176 17.580359154633967 0 1 1
2626 1 21.4920281231813 30.32037393333074 23.08177295097144 0 0 0
983 2 10.487290474151987 9.958558319584887 16.35999665742733 0 1 -1
923 2 14.73450377766196 12.002702179725043 13.156094620361811 0 0 0
2572 1 17.323007502730018 22.490807708346594 22.045278209794162 0 0 0
1620 2 6.1234958560536645 17.810281744462774 6.48432921514256 0 0 1
156 2 7.271330577990255 12.217964562448243 5.3956674566082015 0 0 0
1022 2 12.628685336024166 3.1447988790093246 7.692504628828015 0 1 0
1653 2 13.061386367934197 21.09686527053681 21.893425560808335 0 0 0
1050 2 12.595348030715378 23.256181488485282 10.647188674201965 0 0 0
1081 1 17.532183555726064 14.308601972051028 20.190153972822504 0 0 -1
1594 1 14.461696678501216 17.441713001915772 0.515092188793027 0 0 1
1111 1 11.463846944691703 22.351426583573268 15.649700230986854 0 0 0
1858 1 11.405572417343176 14.348770769594177 19.79234889483384 0 0 0
1150 1 23.477953554279598 24.13092954115299 16.512913634332325 0 0 0
831 2 13.741169940257791 21.36454730341674 16.900495883395905 0 0 0
313 1 18.407903872159117 12.189902083971793 13.50088198019258 0 0 -1
1668 2 15.005283672780752 17.91425033068307 23.96323536912767 0 0 0
1872 2 19.522299419965655 27.134033234186607 22.551992485747395 0 0 0
2613 2 19.803487902604505 24.542545073382797 22.252537756263127 0 0 1
1133 2 10.512878753157633 9.001680782568798 11.033710266281167 0 1 0
833 2 22.740648618938277 15.522747161719472 20.709464807330093 0 0 -1
2556 2 18.535114038383814 12.158931401305841 26.456998576395794 0 0 0
2548 1 11.421934659812816 2.644535131116448 2.5520399213318097 0 1 1
1870 1 18.565479466119807 27.07123250575166 22.877248545275236 0 0 0
1662 2 9.525881848175935 16.49556273380239 6.251674628899726 0 -1 1
1015 1 19.1663997005737 31.476927527239948 23.57060406197262 0 0 -1
1736 2 12.748375595171392 12.794354749048805 7.408826718671918 0 0 0
203 2 10.571622408366668 8.887868469426609 17.95291983641972 0 1 0
1109 2 8.765377728806232 8.91528033491051 12.675252617485777 0 0 0
372 2 19.080544064436122 9.710264159177605 24.480209600521942 0 0 0
2460 2 16.00929431692789 10.021587355291645 5.831192347159273 0 0 1
2555 2 17.54315190421632 13.027494686041809 27.208241133638005 0 0 0
374 2 22.05579060328388 10.655060924475526 26.94932206176099 0 0 -1
3671 2 8.614427702798125 17.509493515270346 8.805867560963742 1 0 0
442 1 15.37342111799314 16.076144532753062 27.00471564150362 0 0 -1
2601 2 18.024238709715448 24.00496817612528 5.866879860072726 0 0 0
2600 2 17.464770618760532 25.217217164765753 5.307948248459202 0 0 0
2339 2 14.070112774125963 31.325416024876198 14.63044847403123 0 0 0
347 2 8.263318321441062 12.51508588780083 14.173845081740579 0 0 0
1859 2 12.041404030127072 13.724351270528485 20.160317397175586 0 0 0
2642 2 9.59725705589685 4.795312161465757 4.478550508951514 0 0 1
2307 2 21.51386528217512 30.580130268263222 16.15260465157945 0 -1 0
1629 2 25.236558840097743 26.31392850334523 11.540927376364225 0 0 0
1088 2 8.096766138072894 20.72188334987604 1.5124998414071862 0 0 0
1702 1 12.002180673981037 18.460980926298046 17.39452857576636 0 0 0
269 2 21.492975320850995 27.20657055533279 22.912704922701337 0 -1 -1
2306 2 20.263076615655 31.47545617949346 16.658099647525194 0 -1 0
198 2 6.251298266981837 6.578065010424971 15.173069599776149 0 0 0
1894 1 16.797679770338135 25.996850002492323 8.26965013209161 0 0 1
2468 2 18.89119613563421 16.097869204868818 4.8307702288531145 0 0 1
472 1 21.8897100455667 10.342789983881882 20.81142400208399 0 0 -1
776 2 16.06066042065629 25.73465309928164 12.525154999021417 0 0 0
973 1 18.65790861507059 23.140696369011387 13.969857809598254 0 0 0
2508 2 9.83429633095271 20.169195764584902 4.156575927204597 0 0 1
1103 2 12.346278275458907 10.212521616683873 26.206614526387348 0 1 -1
2604 2 24.193848609922583 21.800630883317304 16.743451979363133 0 1 0
2390 2 12.016021989817592 17.296036126229552 0.22454052591378715 0 0 0
1134 2 11.810674918727734 8.46428094217559 10.35593132354649 0 1 0
2644 1 12.660488960165715 8.67373219407881 13.350917257460667 0 0 0
3026 2 15.16423977951623 7.806979545548725 21.372036276362476 0 1 0
798 2 10.877710803923858 6.181988936137489 22.696399388076866 0 1 -1
1735 1 11.859160127726508 13.048452273887875 7.115179224918615 0 0 0
2646 2 13.633759748460452 8.499418394357328 13.1704105301962 0 0 0
2413 1 14.8958249064158 21.335835418737883 12.099889860934063 0 0 1
6040 1 12.83545462562974 27.898699358643455 18.099162651787974 1 0 0
2603 2 23.413290412616483 21.15937585924401 17.91978115489135 0 1 0
2554 1 18.300712926979262 13.09468724968695 26.588906791605204 0 0 0
299 2 17.524902671875022 24.267052974155728 16.862555819136787 0 0 0
2305 1 20.75753659472245 30.645871020465357 16.80368636576844 0 -1 0
443 2 15.431679026382408 16.096412499931812 26.004246568322152 0 0 -1
1738 1 6.578610598122965 15.184473212866447 4.9476856431819725 0 0 1
333 2 9.861344813587557 4.651541134330769 12.537049874229561 0 1 0
900 2 14.320740933199072 29.561647589189615 20.434636799381394 0 0 0
2641 1 9.62029988293743 3.8302329203353787 4.517225253892313 0 0 1
5800 1 16.445617057642266 29.709860125014934 26.723978660053405 1 0 0
318 2 22.027898456472055 14.675036203627698 27.078257796981063 0 -1 -1
5972 2 10.580378037626271 27.137031452327598 10.112661210959653 1 0 0
2456 2 22.388125995391658 22.628915487612893 26.1302785450031 0 0 0
1672 1 9.542436791910081 6.533137649446298 5.3060562665786755 0 0 0
5802 2 17.319866884765847 30.087745108809113 27.01953722983841 1 0 0
1862 2 4.295900345554374 10.533186970461434 7.05809941886848 0 0 0
1737 2 11.997810556687053 13.939757512545977 6.713918348631416 0 0 0
180 2 5.598698900856751 9.328303689952149 10.766847536735325 0 0 0
943 1 5.705394110741506 13.030411967111055 8.385434815874055 0 1 0
368 2 11.124901973414769 16.4594972781881 11.821561431529151 0 0 -1
197 2 6.74721376321208 7.249169483577275 16.610126115903746 0 0 0
759 2 14.641014735070225 2.8107451435576856 9.471819049118446 0 0 0
108 2 12.639678278978327 25.590953123800897 11.579860174139961 0 0 0
444 2 6.061042446694475 8.917490367294917 0.134507560604759 0 0 0
376 1 16.603640443508343 32.977317140379505 19.692480839385624 0 -1 0
1001 2 10.707197047845554 19.99104420776703 7.09643360025761 0 0 0
1681 1 4.089941385908896 7.033682084538994 2.0782883330699984 0 0 0
2467 1 19.755008107651264 15.944362071953437 4.478157844888689 0 0 1
1596 2 14.732719986855177 18.270906708992857 0.8666447919701387 0 0 1
972 2 7.703958731620415 4.255300289790889 13.702778362567248 0 1 -1
128 2 6.027748665732513 5.2132577670574545 4.34274663086609 0 1 0
1151 2 24.025605098875115 24.841652468507984 16.160569173782335 0 0 0
1691 2 14.201998031967914 19.64110447345544 12.246355985692432 0 -1 1
316 1 12.01391201347425 7.89631942022927 0.7461144723596369 0 -1 0
2612 2 20.898805892890284 25.1478962136749 23.204925499801508 0 0 1
2491 1 15.30354975813982 14.45002882008361 7.880643594528587 0 0 1
2519 2 21.154996935323744 22.174824120156373 0.8465532434829595 0 0 1
1110 2 8.56290330826928 9.632049052216633 11.244323885338156 0 0 0
1664 2 9.15596772269111 17.89831305959223 13.68454572199275 0 0 0
2563 1 12.855571317872755 9.771205000063862 4.507490472622632 0 1 0
1112 2 12.336451754891499 21.91652223999216 15.559015856583816 0 0 0
1607 2 19.376349996940004 13.700691484845878 9.484616400737723 0 0 0
819 2 27.419762012650935 28.087198461116376 26.35723067669073 0 0 -1
373 1 11.150777146547263 2.968726939934592 0.0471781475702776 0 0 0
1049 2 12.196905915601317 22.71618472034455 9.145721431877636 0 0 0
6041 2 13.373017609989294 27.71913515773428 17.316180793625847 1 0 0
187 1 19.32336561974365 28.828605446304177 15.249998478110633 0 0 0
1900 1 11.89058698647489 25.7199672122618 2.394115192388952 0 -1 1
375 2 21.525991961753174 9.238535619896817 26.864056116983125 0 0 -1
4507 1 7.517867847964905 11.98904311384358 20.008299496415525 1 1 -1
2439 2 10.900442140578217 21.923791854387318 7.8860132388150666 0 1 0
2499 2 27.058233121676736 27.321387777633653 17.471803455008725 0 0 0
844 1 17.571754973393965 18.66954296037491 21.611415906060458 0 0 -1
2930 2 25.75183211901042 28.212049036976875 10.643856635943807 0 0 0
1611 2 18.292970769317247 18.546924644333693 25.63071564126131 0 -1 -1
314 2 17.891908443320865 12.958365643986482 13.191073349277024 0 0 -1
2602 1 24.085035275594162 20.970985003803552 17.26047100601646 0 1 0
1548 2 23.992272794647192 34.118413752168195 24.83113676302296 0 0 0
1560 2 4.191657180974161 4.246354341449233 7.428320350014127 0 1 1
1659 2 4.184702097620041 3.4801427195352868 9.476752169203507 0 0 0
271 1 16.062056276103124 15.705358757145198 15.32394365613229 0 0 0
2469 2 19.773199227339155 16.250843847281438 3.514002934084172 0 0 1
755 2 15.565275760019418 21.592638060843658 8.803282875038624 0 0 0
385 1 17.435584254421226 12.875521788869262 23.208811750669586 0 0 -1
154 1 6.374214150164144 12.610926203772195 5.662618155910848 0 0 0
18 2 9.445108779833745 21.41770580908022 13.485463574219063 0 0 0
1880 2 5.687128139488096 9.830381854475958 15.017235305919035 0 0 0
625 1 12.547064076822352 6.83450806423769 9.583177167645502 0 0 0
1878 2 9.165638263486034 23.654738669351048 0.6863502499671454 0 -1 1
2437 1 11.511265394658206 22.62653609147789 7.770634449405887 0 1 0
752 2 12.453514192038128 20.253303618125308 18.13770317291898 0 0 0
1089 2 9.445832259842678 20.146357542201123 2.2126643334187928 0 0 0
284 2 13.276844389382646 24.857032580800652 0.9164826030896589 0 0 0
871 1 19.50718901420495 17.290902057031335 15.276120994339422 0 0 0
2404 1 10.17080231410704 12.500582430483158 14.432681502370576 0 0 0
2670 2 14.618288228563252 5.692285399925112 21.271121804158398 0 1 0
117 2 15.188809104296315 19.449027474546888 3.068140915628058 0 0 0
995 2 4.7398650352774 8.98312086702643 4.536083599819198 0 1 0
2492 2 15.829838538184035 14.717873697869853 7.054478453713419 0 0 1
1085 2 16.17450674942855 16.602772493231164 3.24527368296722 0 0 0
848 2 16.296646951106656 17.134574567892592 11.588571897762801 0 0 -1
273 2 15.2288904919528 16.174177404090184 15.239219771972284 0 0 0
1084 1 15.514185356265369 16.44466545448185 3.934193345425955 0 0 0
3709 1 9.970453763443548 27.378559618899377 3.1929013430148263 1 -1 0
1667 2 13.85348179320874 16.99873218257123 24.63528632781117 0 0 0
1586 2 9.726148041660949 14.467781101691457 12.112432901708198 0 0 0
196 1 6.369124196709463 6.443965226789264 16.18182670331476 0 0 0
777 2 16.47951357039783 25.21471149151852 11.22130418535037 0 0 0
308 2 16.600239272754134 23.44459134004325 10.001304621640639 0 0 0
309 2 17.423330540177382 24.619913970786005 9.412024465286326 0 0 0
2446 1 19.81395411005368 23.071125424939247 10.092989432793644 0 0 0
1809 2 13.724140756715535 13.66304373560583 12.469345501838955 0 0 0
880 1 16.188668764321125 24.38589309891589 23.479662635503917 0 0 0
315 2 19.03261798543151 12.000433935533314 12.762693341439926 0 0 -1
283 1 14.21155555284508 25.080498764620746 0.7025373897544134 0 0 0
386 2 16.953496320360845 12.943808230151602 22.412176370212446 0 0 -1
2521 1 13.828050015242873 26.98514138993696 15.628103788208175 0 0 0
1275 2 10.11172066905089 16.972645446335033 22.43916625852058 0 0 -1
2344 1 23.287426642431896 22.201163513986476 10.832019535768488 0 0 1
2638 1 11.425555739677122 23.371750597563633 5.0343628410412045 0 1 0
387 2 17.25089785982401 12.075165935896752 23.694830470838124 0 0 -1
254 2 13.358254290750498 16.775495532751176 14.817736436099622 0 0 -1
55 1 16.30720483105395 19.546405229674672 16.202106007876335 0 -1 0
1683 2 4.63572782240594 7.4259598000544695 2.7978865556693906 0 0 0
2586 2 4.955627796285584 14.088810767596767 7.465778542626904 0 1 1
1763 2 12.484421679457935 20.574272981343782 10.035238716471238 0 0 0
2311 1 6.130319868600769 5.003929421293641 1.0532501186425578 0 1 0
823 1 6.190869258803079 13.44137283753368 11.738838145326627 0 1 -1
285 2 24.503213081321313 32.06615807003363 26.97195782981818 0 0 -1
169 1 9.267886844923336 10.87707615732193 22.009470693578997 0 0 -1
3059 2 23.854335847232875 28.555426015569278 5.227048027695374 0 0 1
5030 2 11.756167605319163 13.113445164103835 17.06926742729838 1 0 0
901 1 21.084244952306673 20.459444611299382 24.212840502809957 0 0 -1
902 2 21.162418997108716 19.80836114042136 24.92355820726445 0 0 -1
324 2 8.920300217969626 18.112585658710337 4.02975660382785 0 0 0
2493 2 14.466274859558045 14.943657179285006 7.710309216805018 0 0 1
2598 2 16.102190985084583 20.70079677921385 23.528620992846697 0 0 0
2645 2 12.209213297509255 8.733846694589733 12.465463896818358 0 0 0
1600 1 13.433735113706735 13.54575073166014 21.232148439924533 0 0 0
123 2 16.316718244679816 13.288614196692278 20.310169701447485 0 0 -1
367 1 11.927222991560058 16.957003088639016 11.761046817912895 0 0 -1
1583 2 14.48113191577082 15.826755085530692 12.967259928499695 0 0 1
317 2 11.912745205544297 8.845925444443505 0.6308227781877399 0 -1 0
2571 2 19.85087101137693 23.940357640667383 11.59169168685966 0 0 0
2360 2 15.924984220953426 12.244920059177183 3.137257632974346 0 0 0
115 1 14.767114060510941 19.115350561724824 3.8707965851844564 0 0 0
116 2 14.57793283737469 19.947308418208035 4.371963613493427 0 0 0
817 1 27.280142334916686 29.082717206938838 26.330852324688617 0 0 -1
95 2 14.306684521234029 15.23578676798591 4.291529308588993 0 0 0
2415 2 15.063365314605456 21.709078553355997 11.182864548531741 0 0 1
2568 2 26.936243133421257 26.361179782285184 23.215499293757045 0 0 0
1048 1 12.800182123231156 22.582396312077055 9.99341716826011 0 0 0
1066 1 7.566318987110448 2.6371444414576297 5.635078007872977 0 2 0
4506 2 8.492792356204497 20.38753739851036 11.361888325888147 1 0 0
1086 2 15.272564316699093 17.41315502668707 4.145198738800161 0 0 0
627 2 13.355723716713424 6.80097491290651 9.040449639756927 0 0 0
1083 2 18.16930058338542 14.096186014155494 20.902020276956517 0 0 -1
53 2 17.705992710674117 29.081212936253387 5.40301728259399 0 -1 0
5976 2 16.095231715785854 27.558797355567815 24.184747798843404 1 0 0
2565 2 12.753627406624016 10.565275451278715 3.8273412108743856 0 1 0
3667 1 1.2054705796490537 7.238455851520435 2.5295431968229143 1 0 0
354 2 8.489544097978676 15.72251812464343 15.583663969071933 0 0 0
1673 2 9.672428245557587 6.1305654167422645 6.171387952592492 0 0 0
1907 2 3.933774306430977 10.738613427098334 4.720284119940352 0 0 1
1273 1 10.914338705159192 17.356613481964104 22.824449454698442 0 0 -1
322 1 8.45262555905613 17.215085224506367 4.241398972087269 0 0 0
1538 2 10.061949288257374 12.54449136186767 12.719027427419999 0 0 0
2569 1 20.09954392680708 24.55540889128853 12.354632825358328 0 0 0
92 2 18.20666083138028 7.739610318193471 7.88543164035541 0 0 -1
1568 2 5.450008765144649 7.500784788785261 13.36396640602815 0 1 0
155 2 6.334955573949334 12.525432217799152 6.633955290766309 0 0 0
482 2 10.910678753312528 12.017807391547954 25.90485635925912 0 0 -1
2681 2 17.569799699143918 21.961910848233984 24.875804168119004 0 0 0
5806 1 9.497534726074548 15.007578687398148 21.893657053149756 1 1 0
1002 2 9.5630621556116 19.64770081234964 8.21817011110785 0 0 0
1572 2 19.50187320774627 24.94097262111305 16.29679010880192 0 0 1
2682 2 17.36237055121804 20.682025641419738 25.750896400100704 0 0 0
1602 2 14.247813218103467 13.253363347086617 20.75390455043859 0 0 0
2680 1 16.903643110560928 21.557456008253045 25.480466338367954 0 0 0
675 2 22.04757716705775 26.084982092468717 0.11725345825733702 0 -1 0
975 2 17.97610441741379 22.590284564104294 13.497191140994662 0 0 0
272 2 15.842832055033753 14.797312981324273 15.547828215850348 0 0 0
1582 1 13.608754753343838 15.392264862806286 13.018110838640021 0 0 1
2574 2 16.77415400826006 23.04187798871606 22.681932491389066 0 0 0
1231 1 13.864310837685075 5.718938455361292 2.5195558270862204 0 1 0
4264 1 14.100845082966945 23.164034135616884 13.783992860721964 1 0 0
2661 2 6.646329777997601 6.651439066062657 10.653921422015062 0 1 0
1374 2 30.59484256852142 30.485232524724307 22.44364820108434 0 0 -1
1520 2 17.798282359944857 9.532778458081044 12.186020413413544 0 0 0
1890 2 24.991275459029552 20.14080232452337 25.62545698567402 0 0 -1
305 2 21.94743968270268 10.225696550685331 17.556720515643736 0 0 -1
1842 2 26.73415116048378 20.630889010334013 24.408616641354662 0 0 0