LAMMPS data file via write_data, version 15 Apr 2020, timestep = 1150000

1920 atoms
2 atom types

-2.9617561203066245e-02 2.4754022561204181e+01 xlo xhi
6.7893774209567326e-02 2.4656511225789899e+01 ylo yhi
1.7235896862750621e-02 2.2775136103137669e+01 zlo zhi
-2.0535787946177719e-01 -1.1253972422696645e-01 2.8623037824176317e-01 xy xz yz

Masses

1 16
2 2

Atoms # atomic

1 1 4.5199820447523260e+00 1.4546983296012286e+00 4.2615751964215569e+00 0 0 0
2 2 5.2456030599295502e+00 1.2398915392477838e+00 3.6134894480159301e+00 0 0 0
3 2 4.6095811203388637e+00 8.0301777568754384e-01 4.9826635443540868e+00 0 0 0
4 1 2.9288161384539020e+00 1.6346416846088834e+00 2.1644572871196597e+00 0 0 0
1117 1 1.2008184614721639e+01 1.1270833247961365e+01 1.4899924719004414e+01 0 0 0
6 2 3.4030266585303766e+00 1.4820868823479185e+00 3.0480766064463909e+00 0 0 0
7 1 6.1055056933275873e+00 4.8240052837584484e+00 3.3411382555571874e+00 0 0 0
8 2 5.0840733233808804e+00 4.7714960739937382e+00 3.3889875384506416e+00 0 0 0
9 2 6.4454949252775648e+00 4.0600037567232032e+00 3.8594002781921319e+00 0 0 0
10 1 3.1271154021545544e+00 4.8022788886503474e+00 3.5355415406977539e+00 0 0 0
11 2 2.8200879496443836e+00 3.9570089826910744e+00 3.8622152427480545e+00 0 0 0
12 2 2.6615739727953343e+00 5.5361267705350707e+00 3.9759284439064255e+00 0 0 0
13 1 1.4854058719447545e+00 3.0345586210283750e+00 4.7968138993873861e+00 0 0 0
14 2 1.2368058639415049e+00 2.0603123365261289e+00 5.0230046929873540e+00 0 0 0
15 2 1.4949956668272126e+00 3.4718315381442730e+00 5.6531729550080625e+00 0 0 0
896 2 1.0360582101582709e+01 1.9738095616815871e-01 5.9890938265929412e+00 0 0 0
17 2 1.0029653212347800e+00 1.5438280508136435e+00 2.3076652323090219e+00 0 0 0
19 1 5.0508867807598881e+00 3.1973625176361029e+00 9.4519217505110775e-01 0 0 0
20 2 4.1940696073019970e+00 2.8451000196109333e+00 1.3858357233984622e+00 0 0 0
21 2 4.9587625894564376e+00 4.1494689080221843e+00 7.8316864765031569e-01 0 0 0
22 1 1.2987274189587650e+00 4.5570796446725570e+00 1.5541565800196078e+00 0 0 0
23 2 2.1281498360830566e+00 4.5957213273146609e+00 2.0756754134229878e+00 0 0 0
24 2 1.4927247917016961e+00 3.9475664311133172e+00 8.1936991374011059e-01 0 0 0
25 1 4.7138998843831876e+00 5.9664449353998297e+00 8.3890782779113682e-01 0 0 0
26 2 3.8700016017185095e+00 6.3954258997993376e+00 1.1894603049766121e+00 0 0 0
27 2 4.6712669733185219e+00 6.7108254537503269e+00 2.2775058505681791e+01 0 0 0
1857 2 1.1469205082632325e+01 7.4248769399788961e-01 1.7735975646471399e+01 0 0 0
31 1 1.0855480038750731e+01 1.4844349062658606e+00 4.6665831668658377e+00 0 0 0
32 2 1.0999339464602759e+01 2.2204021191555516e+00 5.2856630839726906e+00 0 0 0
157 1 1.2094715985951668e+01 1.0729560913921924e+01 3.7547630975081221e+00 0 0 0
34 1 9.0206634501766665e+00 2.0254053703598398e+00 2.4824749836458007e+00 0 0 0
988 1 1.3323037258457533e+00 4.7720531574745551e-01 1.6267091797213070e+01 0 0 0
36 2 9.6905499804319497e+00 2.4218613674975016e+00 1.8427482843318947e+00 0 0 0
1576 1 7.2750511319241942e-02 8.0081222058515689e+00 1.9359785943835657e+01 0 0 0
39 2 1.1161305543970684e+01 4.9469672859703495e+00 3.4799888669870800e+00 0 0 0
40 1 9.3536196542930163e+00 4.9329324926989084e+00 3.7018222458171008e+00 0 0 0
41 2 8.8667049613593178e+00 4.7619289942321803e+00 2.8340592751361662e+00 0 0 0
42 2 9.1756726074317285e+00 4.1233966341878725e+00 4.2093656745438661e+00 0 0 0
43 1 7.3699986825330264e+00 2.9675431972274300e+00 4.8053897967437296e+00 0 0 0
44 2 7.6582036601809680e+00 3.2484215628297703e+00 5.6855168117622563e+00 0 0 0
45 2 7.5779745061750452e+00 1.9608300210513310e+00 4.7046743103493229e+00 0 0 0
46 1 6.3648587500003133e+00 1.3610300491325624e+00 2.2776856960998892e+00 0 0 0
47 2 7.2917514733928828e+00 1.6146183114878283e+00 2.5190652625738101e+00 0 0 0
48 2 6.0665812044528309e+00 2.2025513347333558e+00 1.7947659463946166e+00 0 0 0
49 1 1.1205301662773380e+01 3.3102665927227615e+00 8.5409415721362958e-01 0 0 0
50 2 1.1672191166892185e+01 2.6858573202700424e+00 1.4830063396252171e+00 0 0 0
51 2 1.1113105709115631e+01 3.2277604440423726e+00 2.2727055147844460e+01 0 0 0
52 1 7.8031263596538167e+00 4.4910893301938017e+00 1.4721512664851293e+00 0 0 0
53 2 7.7136044960866457e+00 3.6388535344640593e+00 9.7263982925239201e-01 0 0 0
54 2 6.8939207545714991e+00 4.5555720063253826e+00 2.0001951199822896e+00 0 0 0
55 1 1.1086462182763583e+01 5.9113205844834837e+00 7.8824612803024996e-01 0 0 0
56 2 1.0234621687012678e+01 6.1209141724861116e+00 1.2271235670264196e+00 0 0 0
57 2 1.1127619700550436e+01 4.9179752586611611e+00 7.0454920503280860e-01 0 0 0
578 2 1.2064132515224205e-01 5.4651293978269262e+00 9.5526023000593518e+00 0 0 0
614 2 4.9828733928483360e-01 9.7423882697232767e+00 1.0389593196302357e+01 0 0 0
1608 2 7.2061057943902469e+00 8.0506907931886680e+00 1.9272321485941738e+01 0 0 0
531 2 1.0611560483831610e+01 4.1844604837715584e+00 6.3753939981665999e+00 0 0 0
121 1 4.7618469902270144e+00 7.5518617360899718e+00 4.3834478770275309e+00 0 0 0
122 2 5.5405253037760414e+00 7.6448244734226574e+00 3.7550481039105130e+00 0 0 0
123 2 3.9482805931338789e+00 7.5314910595148810e+00 3.8424970028683076e+00 0 0 0
124 1 3.0131024643277353e+00 7.7538630781667104e+00 2.2016512870384313e+00 0 0 0
125 2 3.2496663805599311e+00 8.4423182400846137e+00 1.5135445342659413e+00 0 0 0
126 2 2.0291043869886378e+00 7.7809182775624430e+00 2.2457173309552156e+00 0 0 0
127 1 5.8651727817785559e+00 1.0863695395620113e+01 3.4756775152008004e+00 0 0 0
128 2 6.2658905081170806e+00 1.0360822189182215e+01 4.1661726483810471e+00 0 0 0
129 2 4.8686173053989066e+00 1.0816488658493338e+01 3.6966926211634932e+00 0 0 0
130 1 3.0387509775154604e+00 1.0726751111110543e+01 3.5352042230886331e+00 0 0 0
131 2 2.8196163610590608e+00 9.9205457648464002e+00 3.9200004139969447e+00 0 0 0
132 2 2.7526756732471078e+00 1.0722269960584050e+01 2.6190622887741863e+00 0 0 0
133 1 1.3633749384523977e+00 8.9377070768634503e+00 4.9307449892748387e+00 0 0 0
134 2 1.3548396711589341e+00 9.3792087251192342e+00 5.7879632468978190e+00 0 0 0
135 2 8.2168095103234207e-01 9.4267273729830787e+00 4.3640448000411443e+00 0 0 0
218 2 1.7442362647582285e-01 1.0829865476565704e+01 2.6780612622986091e+00 0 0 0
139 1 4.6184031841572093e+00 9.2864636658507980e+00 5.6056617900799155e-01 0 0 0
140 2 4.4472782033978175e+00 1.0192631317067795e+01 7.6375287680463111e-01 0 0 0
141 2 5.2276833781266596e+00 8.9224139223859105e+00 1.2579887566873003e+00 0 0 0
142 1 1.4636138702481063e+00 1.0881879130156586e+01 1.2901994803445374e+00 0 0 0
143 2 1.3246525632200590e+00 1.0095148058660367e+01 7.1996441630140084e-01 0 0 0
144 2 1.2820824270173599e+00 1.1577520362193663e+01 5.9691075075819910e-01 0 0 0
508 1 1.5895186873162248e+00 2.9930825724202903e-01 1.0722986337104075e+01 0 0 0
148 1 1.4538363293191938e+00 6.3940109822890818e+00 4.8875157728032628e+00 0 0 0
176 2 9.8579239395463336e+00 1.2126655115695206e+01 1.1718793004932349e+00 0 0 0
150 2 1.3002045925708507e+00 7.3218751881215143e+00 4.5866733331880960e+00 0 0 0
151 1 1.0912253530583669e+01 7.6969422673347516e+00 4.2402062466964425e+00 0 0 0
749 2 1.2040045479152264e+00 1.2156085885288917e+01 1.1360270624758263e+01 0 0 0
153 2 1.1102646761657155e+01 8.3534466721449565e+00 4.9842314255444844e+00 0 0 0
154 1 8.8659111595051918e+00 7.4178228442609244e+00 2.1412653743923031e+00 0 0 0
155 2 9.1586302329175595e+00 8.2027163356528536e+00 1.6070920232413164e+00 0 0 0
156 2 9.3900600622857322e+00 7.3823884724904030e+00 2.9225936716453007e+00 0 0 0
676 1 1.2214354002190056e+01 7.8174937976562999e+00 7.8551412037272854e+00 0 0 0
158 2 1.1099733348958431e+01 1.1002156806108294e+01 3.6331078809835269e+00 0 0 0
160 1 9.4575223367244909e+00 1.0806554488208265e+01 3.6471899752950669e+00 0 0 0
161 2 9.0020462967002288e+00 1.0651417519975233e+01 2.7594732982167192e+00 0 0 0
1539 2 3.6707078543201810e-01 4.2526483901315117e+00 2.1036161648364878e+01 0 0 0
163 1 7.6250872491117452e+00 9.3425642052719979e+00 4.8939942074845577e+00 0 0 0
164 2 7.8590839461053426e+00 8.3854853071951929e+00 5.0067209997189925e+00 0 0 0
165 2 8.4509441725854941e+00 9.7480899731601820e+00 4.4944498132137891e+00 0 0 0
166 1 6.2614252001579178e+00 7.8138849917700259e+00 2.1935745084466167e+00 0 0 0
167 2 5.9194388028249501e+00 7.0200021229664316e+00 1.7406616930533600e+00 0 0 0
168 2 7.2388401926867116e+00 7.7704021436273276e+00 2.3075939724299976e+00 0 0 0
169 1 1.0926457191670474e+01 9.3928809244466702e+00 7.9591227278579268e-01 0 0 0
170 2 1.0847167053706993e+01 1.0364044329032177e+01 8.0150288658951452e-01 0 0 0
171 2 1.0736327411286490e+01 9.4285261779176111e+00 2.2629096359619950e+01 0 0 0
172 1 7.6640001788160008e+00 1.0464465154865136e+01 1.6036513678671678e+00 0 0 0
173 2 6.8197236756542985e+00 1.0295923933557487e+01 2.1261631862673513e+00 0 0 0
174 2 7.5465156140197296e+00 9.9554886437244399e+00 7.8085885939383026e-01 0 0 0
699 2 -6.6186803041847389e-02 1.1494258669358693e+01 9.6030253853677294e+00 0 0 0
178 1 7.5950271925938493e+00 6.5550700071490970e+00 5.0076515002004429e+00 0 0 0
179 2 6.9128121794065240e+00 6.1465600611510629e+00 4.4435438559588913e+00 0 0 0
180 2 8.3721919069897837e+00 5.9954906219147341e+00 4.7589501607410414e+00 0 0 0
1105 1 4.3748698342032153e+00 1.2128356423748874e+01 1.2268280559063657e+01 0 0 0
77 2 1.2271097253531895e+01 5.9444677204097807e-01 1.8342840178264548e+00 0 0 0
750 2 2.0720941201276779e+00 1.2218993504384544e+01 9.9804567504694734e+00 0 0 0
1589 2 8.0120688095943438e-01 6.2836484763827123e+00 2.1570910658731911e+01 0 0 0
1619 2 7.8636794112287030e+00 5.6281119411762397e+00 1.8323153635342099e-01 0 0 1
495 2 5.2590458743144297e-01 3.4021825664424177e+00 1.0209710885495999e+01 0 0 0
1618 1 8.0312893669007117e+00 6.4565647694078487e+00 2.2177876276567808e+01 0 0 0
1347 2 5.4026139775982713e+00 4.7906369075350624e-01 1.2473504647642274e+01 0 0 0
1259 2 8.4496378692372982e+00 1.2445475071034847e+01 1.6116037603177126e+01 0 0 0
481 1 4.4768394004991219e+00 1.9724155216005048e+00 1.0144650538758098e+01 0 0 0
482 2 4.3735394596476178e+00 1.0308766174269639e+00 1.0473205517515625e+01 0 0 0
483 2 5.1834331333453347e+00 1.8218905586467249e+00 9.4371942373154543e+00 0 0 0
484 1 2.7592642499593323e+00 1.7901175222636780e+00 7.7718576289232306e+00 0 0 0
485 2 3.0838296284541706e+00 1.9162373012614300e+00 8.7026504567346983e+00 0 0 0
486 2 1.7937080964277663e+00 1.7880759640887001e+00 7.7737128526244019e+00 0 0 0
487 1 6.0001590265245754e+00 4.7883763884303443e+00 9.4435354867499282e+00 0 0 0
488 2 4.9916827906100876e+00 4.7027108534351774e+00 9.3345978535680665e+00 0 0 0
489 2 6.2962269972485387e+00 4.0410950977507856e+00 1.0001113929722651e+01 0 0 0
490 1 3.1211905091944860e+00 4.8095002674820586e+00 9.1114389469639434e+00 0 0 0
491 2 2.6896752589002730e+00 4.0571017110986629e+00 9.4840350905338191e+00 0 0 0
492 2 2.6654617154481097e+00 5.6205563265551168e+00 9.4471074008349607e+00 0 0 0
493 1 1.2043110880300305e+00 2.8666208422195125e+00 1.0589514584220785e+01 0 0 0
494 2 1.4725372230657150e+00 3.3159559503585436e+00 1.1471207119816066e+01 0 0 0
1605 2 6.6548702678221501e+00 9.7151303381646699e+00 2.1761977819574202e+01 0 0 0
1613 2 7.2266901456412613e+00 1.1619730876292312e+01 1.7768563807055919e+01 0 0 0
499 1 4.3544845482963312e+00 3.4438246547072429e+00 6.3686233251866486e+00 0 0 0
500 2 3.6705029814963872e+00 2.8122603361968359e+00 6.7166453885416946e+00 0 0 0
501 2 4.4730832756440577e+00 3.1286486153021995e+00 5.4703209039015244e+00 0 0 0
502 1 1.5043519888808099e+00 4.7232087149882593e+00 7.0169864685499546e+00 0 0 0
503 2 2.2490225841884302e+00 4.9538728091898854e+00 7.6524274016646698e+00 0 0 0
504 2 1.5045881902375389e+00 5.4963907774686831e+00 6.4325631068054552e+00 0 0 0
505 1 4.6528892304290022e+00 6.0849536030111979e+00 6.5265272308370754e+00 0 0 0
506 2 4.5016267541479484e+00 5.1139079118392585e+00 6.4286848579469860e+00 0 0 0
507 2 4.5994692047558132e+00 6.4497685377331111e+00 5.6383822223022246e+00 0 0 0
5 2 3.3561420908151050e+00 9.5849314520835993e-01 1.5573387660201952e+00 0 0 0
509 2 1.4824488472870800e+00 1.2744385573070691e+00 1.0823077895055521e+01 0 0 0
511 1 1.0470813737939569e+01 2.1876796252975388e+00 9.8498151435092538e+00 0 0 0
512 2 1.0315862370076937e+01 1.4568408446660486e+00 1.0485238431113650e+01 0 0 0
513 2 9.7077084612603777e+00 2.1091713833685577e+00 9.2174320436781727e+00 0 0 0
514 1 8.8216655218689777e+00 1.7736439991082564e+00 7.8153021530550868e+00 0 0 0
515 2 7.8457306453631723e+00 1.7078242787393825e+00 7.8248960143593864e+00 0 0 0
1571 2 2.1789905982546895e+00 1.1767818731047962e+01 2.1083264685375180e+01 0 0 0
1638 2 1.2112980415575493e+01 8.0462111489919224e+00 2.0378275070583456e+01 0 0 0
520 1 9.2359336070203799e+00 4.9573728919043267e+00 9.2383732268238248e+00 0 0 0
521 2 1.0254091143019968e+01 4.8368337144744977e+00 9.2123421151388207e+00 0 0 0
522 2 8.9085818765286096e+00 4.8470933607852169e+00 8.3361957075948467e+00 0 0 0
523 1 7.4656822890022969e+00 3.1909988795353654e+00 1.0820051349219773e+01 0 0 0
524 2 7.3606385456880918e+00 2.2211525699150583e+00 1.0710248190768482e+01 0 0 0
525 2 8.2801769718606195e+00 3.3104821288407336e+00 1.0242532834667362e+01 0 0 0
526 1 6.0934676495906377e+00 1.6908836745149032e+00 7.8526236300261303e+00 0 0 0
527 2 5.7340167122860697e+00 2.4678282444721731e+00 7.4093171412697165e+00 0 0 0
1615 1 1.0384098782122049e+01 1.2453520263486276e+01 1.7734119735130282e+01 0 0 0
529 1 1.0715477961808320e+01 3.2354572780403212e+00 6.5029751795547899e+00 0 0 0
530 2 9.9498265778172250e+00 2.9484508551957722e+00 6.9723416645000809e+00 0 0 0
1058 2 1.7007837495980005e-01 4.2111523734855529e+00 1.5157778124953815e+01 1 0 0
532 1 7.6076795098242931e+00 4.6163898053352872e+00 7.3256495018665273e+00 0 0 0
533 2 7.4903443378581773e+00 5.3728899140629212e+00 6.7169341830084077e+00 0 0 0
534 2 6.9595808842821771e+00 4.7703395578214129e+00 7.9962331546045178e+00 0 0 0
535 1 1.0584721568383138e+01 5.8669301325291006e+00 6.4811725630224402e+00 0 0 0
536 2 9.8622865932733177e+00 6.3689625551762576e+00 6.9863662447256401e+00 0 0 0
537 2 1.0519586167827180e+01 6.1986715236715044e+00 5.5606545441082353e+00 0 0 0
1607 2 5.7570459330760952e+00 8.0462197646433573e+00 1.9998310080787558e+01 0 0 0
1518 2 1.1945662693391951e+01 2.5126822226045178e+00 1.8733036149989900e+01 0 0 0
1472 2 1.1621468928233897e+01 1.5935153318848234e+00 2.1033594238000326e+01 0 0 0
579 2 -6.9409572667755368e-02 4.4396588880320369e+00 8.3689845629465935e+00 0 0 0
1612 1 7.1305990730790141e+00 1.0766368335273574e+01 1.8378286052540723e+01 0 0 0
601 1 4.5555911617509839e+00 7.8836754669075511e+00 9.9355636944150039e+00 0 0 0
602 2 5.1898250926054255e+00 7.5958490905000522e+00 9.2075204339145902e+00 0 0 0
603 2 4.8392210456576317e+00 8.6320364779447551e+00 1.0458907197802816e+01 0 0 0
604 1 2.7342913047052768e+00 7.4531297178639822e+00 8.0883598489603852e+00 0 0 0
605 2 3.3337025236022453e+00 7.7139175702770650e+00 8.8180989234545777e+00 0 0 0
606 2 3.2268340175257406e+00 7.1197945528510900e+00 7.3240762251950198e+00 0 0 0
607 1 5.6154698436763733e+00 1.0803547995387548e+01 9.6154112897557802e+00 0 0 0
608 2 6.0340541203615743e+00 1.0976317946226564e+01 8.7652582215741166e+00 0 0 0
609 2 6.2780491198825850e+00 1.0224730574170689e+01 1.0143045453125325e+01 0 0 0
610 1 3.0103449910334965e+00 1.0757220057815989e+01 9.2528190293730948e+00 0 0 0
611 2 2.5656661713534907e+00 1.0725463201072907e+01 8.3857220736973144e+00 0 0 0
612 2 3.9443456207059784e+00 1.0587200621846881e+01 9.2210803279005891e+00 0 0 0
613 1 1.2055238857686186e+00 9.2333545655204396e+00 1.0878629310684170e+01 0 0 0
557 2 1.1774211370890828e+01 1.7722582181305462e+00 8.6781606394575643e+00 0 0 0
615 2 2.0063543557953247e+00 9.6173265844419262e+00 1.0469469644671156e+01 0 0 0
1826 2 5.3180077093783646e+00 5.7686814993620961e-01 1.7931394884665991e+01 0 0 0
618 2 9.2956635499137208e-01 7.9482538172523833e+00 7.8981749399679089e+00 0 0 0
619 1 4.3469086338965708e+00 9.3593967791311314e+00 6.5442784498848043e+00 0 0 0
620 2 4.3671575316512392e+00 8.7936664380441751e+00 5.7104441429399557e+00 0 0 0
621 2 3.5914628373826170e+00 9.1788475644697396e+00 7.0975681144826082e+00 0 0 0
622 1 1.3904463951304851e+00 1.0783204849932501e+01 6.9906174518889941e+00 0 0 0
623 2 6.8016300795305118e-01 1.0905435575911124e+01 7.6378129298667448e+00 0 0 0
624 2 1.3633188704927175e+00 1.1515391933258584e+01 6.3093334475736613e+00 0 0 0
1178 2 -1.5632638553888356e-01 1.1885056119130944e+01 1.5195173512945324e+01 0 0 0
626 2 4.3821611212492106e+00 1.1184805453141285e+01 6.0794733727462829e+00 0 0 0
628 1 1.3002977078710591e+00 6.3600499322241184e+00 1.0638258031579664e+01 0 0 0
629 2 1.5481319540177152e+00 5.8234380452798087e+00 1.1425496127466207e+01 0 0 0
630 2 1.5248738238845605e+00 7.2589399517474194e+00 1.0759207020109931e+01 0 0 0
631 1 1.0641855877406094e+01 8.0678382254628840e+00 1.0107170048781104e+01 0 0 0
632 2 1.0792071564945836e+01 7.3842140196222141e+00 1.0738330040033970e+01 0 0 0
633 2 1.1342332434836312e+01 8.0257092221660677e+00 9.4596544003921874e+00 0 0 0
634 1 8.8550360041074985e+00 7.7260560324253893e+00 7.6712430196933372e+00 0 0 0
635 2 9.0059579611298126e+00 7.7658046184798888e+00 8.6435799912150131e+00 0 0 0
636 2 7.8753537008414698e+00 7.6689792568412321e+00 7.6337677383445905e+00 0 0 0
654 2 7.5947145650320405e+00 1.1752936994843832e+01 6.4116464994491782e+00 0 0 0
639 2 1.1183891361683610e+01 1.0996017881398437e+01 9.4920795866840866e+00 0 0 0
640 1 9.4265028765639443e+00 1.1088765185249148e+01 9.3962826589098345e+00 0 0 0
641 2 9.0265834838534609e+00 1.1200062484988560e+01 8.5105631425470811e+00 0 0 0
642 2 8.9594826790673885e+00 1.0346391820089378e+01 9.8409953955785365e+00 0 0 0
643 1 7.7796861198623057e+00 9.3300008602406805e+00 1.0807020651801960e+01 0 0 0
644 2 7.6527464260639446e+00 8.3566350516064780e+00 1.0758260369382462e+01 0 0 0
645 2 7.8855144884105357e+00 9.7022274784638611e+00 1.1739728733584389e+01 0 0 0
646 1 6.2137250557637547e+00 7.6256917175420247e+00 7.8339843847519193e+00 0 0 0
647 2 5.8844202887410306e+00 6.9361679220205472e+00 7.1529624356418244e+00 0 0 0
648 2 5.9136862559272760e+00 8.5356680323499781e+00 7.5275387358493413e+00 0 0 0
649 1 1.0688361104038327e+01 9.3737795008836891e+00 6.4627564281518755e+00 0 0 0
650 2 1.0680005650716328e+01 1.0371878850329539e+01 6.3221782090804304e+00 0 0 0
651 2 9.8494905529270529e+00 9.1599310337326347e+00 6.9767911443795203e+00 0 0 0
652 1 7.6304929748080141e+00 1.1071853581183239e+01 7.1463062329977811e+00 0 0 0
653 2 7.6946896923669188e+00 1.0208278638814770e+01 6.7215224145620533e+00 0 0 0
517 1 1.2037730944091866e+01 4.5692510655029874e+00 9.1835388675808272e+00 0 0 0
1089 2 5.1067469555796494e+00 1.1187871217976527e+01 1.4888629169515770e+01 0 0 0
658 1 7.5145055891429386e+00 6.5866234109980306e+00 1.0650152564338027e+01 0 0 0
659 2 6.6490210048751637e+00 6.4178133063604177e+00 1.0166456487111908e+01 0 0 0
660 2 8.0975016647082985e+00 5.9448148998454053e+00 1.0177071877542547e+01 0 0 0
1610 2 1.0633531762759516e+01 9.3452824273181960e+00 1.6826244144472376e+01 0 0 0
1604 2 8.1680195206044264e+00 9.5545067263301906e+00 2.1496137940016162e+01 0 0 0
496 1 -5.3045040049446157e-03 1.7680816927731995e+00 7.7931443937082392e+00 0 0 0
58 1 7.8288133151639521e+00 3.6272735742963552e-01 4.7367755751220528e+00 0 0 0
1614 2 7.8475707607239338e+00 1.0945797944128431e+01 1.9101081695974301e+01 0 0 0
1611 2 1.1213531901120328e+01 9.1060690577392673e+00 1.8179333127141252e+01 0 0 0
1738 1 7.4206492530735195e+00 1.2619577194665267e+01 2.2284219586852767e+01 0 0 0
1616 2 1.0527926959482381e+01 1.1513495416117713e+01 1.7606399379388503e+01 0 0 0
1133 2 8.0167260713260813e+00 1.1750184831312703e+01 1.2483958443828117e+01 0 0 0
1658 2 -1.1709602506941690e-01 1.1232344883973306e+01 1.9883220615490405e+01 0 0 0
961 1 4.8635350971207352e+00 2.1087424573197491e+00 1.5633726396323214e+01 0 0 0
962 2 4.7001782364019755e+00 2.8044045687292840e+00 1.6258770123281757e+01 0 0 0
616 1 -3.2829525579564679e-02 7.8676129623519913e+00 7.8899074696124565e+00 0 0 0
964 1 2.8929689164238748e+00 1.8281243405119736e+00 1.3467020723785541e+01 0 0 0
965 2 3.4591213513495309e+00 1.8807247392483861e+00 1.4281814925673052e+01 0 0 0
966 2 3.4026028164076307e+00 2.3977965704363067e+00 1.2928629241037806e+01 0 0 0
967 1 5.7871789288226987e+00 5.2324744004735804e+00 1.5096340477082244e+01 0 0 0
968 2 6.2977289510465404e+00 5.8496966799119399e+00 1.5590794945874277e+01 0 0 0
969 2 6.1726039475562766e+00 5.1354764479072159e+00 1.4184303997144102e+01 0 0 0
970 1 3.0967546049809433e+00 4.9373290987647716e+00 1.5138979611777231e+01 0 0 0
971 2 4.0841749869860040e+00 5.1309347727915826e+00 1.5081266678227097e+01 0 0 0
972 2 2.7204802296843842e+00 5.7708749482460275e+00 1.5451496564938459e+01 0 0 0
973 1 1.2788484675824177e+00 3.1410277454525231e+00 1.6136518606309401e+01 0 0 0
974 2 2.0563729867725327e+00 3.6524245527084216e+00 1.5947830920922973e+01 0 0 0
975 2 1.0749079179675025e+00 3.4152937850502258e+00 1.7048248342177992e+01 0 0 0
1468 1 1.5902926191767512e+00 6.2052823007072799e-01 2.2307125017928808e+01 0 0 0
977 2 1.0827305471327848e+00 1.7543291831841028e+00 1.3522818625275821e+01 0 0 0
979 1 4.5957562976058908e+00 3.6269712706298338e+00 1.2048111202007691e+01 0 0 0
980 2 4.6437577887098032e+00 3.2134127530526082e+00 1.1239750733380289e+01 0 0 0
981 2 5.1541251044272673e+00 3.1236797073178710e+00 1.2646421674845708e+01 0 0 0
982 1 1.7069298842541609e+00 4.9591172484638477e+00 1.2722049298095179e+01 0 0 0
983 2 2.5090697467125200e+00 5.0219513107133631e+00 1.3263154440635068e+01 0 0 0
984 2 9.7009892980198809e-01 5.0346298595036565e+00 1.3408462396491634e+01 0 0 0
985 1 4.2320129158327227e+00 6.5528408126703850e+00 1.2240500805377190e+01 0 0 0
986 2 4.3206128268426092e+00 6.8994685350131810e+00 1.1315409562704090e+01 0 0 0
987 2 4.3031463193672028e+00 5.5770579463588295e+00 1.2245050791842429e+01 0 0 0
1537 1 4.2394246513823702e-03 5.0594544041244287e+00 2.0629482655423384e+01 1 0 0
989 2 1.2273510714837377e+00 1.4456001331575341e+00 1.6344385666797095e+01 0 0 0
991 1 1.0534109822833150e+01 2.0754523225725992e+00 1.5339159644883249e+01 0 0 0
992 2 1.0592351803661188e+01 1.3729529488063963e+00 1.6025224687280954e+01 0 0 0
993 2 9.6789367123917387e+00 1.8720785046752073e+00 1.4931529488492105e+01 0 0 0
994 1 8.7582700603616157e+00 1.6830352190827298e+00 1.3343417079821808e+01 0 0 0
995 2 9.1639983211044225e+00 1.0235486165990784e+00 1.2740057932105778e+01 0 0 0
996 2 9.2112626799698294e+00 2.4850901309888926e+00 1.3062093101559283e+01 0 0 0
1602 2 8.4118624444511703e+00 1.1644414218231592e+01 2.1116561209495604e+01 0 0 0
998 2 1.1345583152455339e+01 4.9007722050844205e+00 1.4850363905802300e+01 0 0 0
1000 1 9.3839014546313191e+00 5.0918260473786541e+00 1.5187800734149620e+01 0 0 0
1001 2 8.7981002686819334e+00 4.3429970048965512e+00 1.5442949779540907e+01 0 0 0
1002 2 9.0212439592653642e+00 5.2856272534294417e+00 1.4330402701116826e+01 0 0 0
1003 1 7.7588464560743642e+00 3.2377343961505582e+00 1.6183871735958476e+01 0 0 0
1004 2 6.8541558266112759e+00 3.5702003700219160e+00 1.5910006495107123e+01 0 0 0
1005 2 7.7882868822723932e+00 3.7012694141885998e+00 1.7096836055663758e+01 0 0 0
1006 1 6.2207753154305330e+00 1.6932213464820105e+00 1.3317186972474072e+01 0 0 0
1007 2 5.9418900154894256e+00 1.5611645841042630e+00 1.4277784956117452e+01 0 0 0
1008 2 7.2071866899401380e+00 1.6207287603976881e+00 1.3368304597122458e+01 0 0 0
1009 1 1.0346947760976828e+01 3.5030171760987794e+00 1.1967488373630724e+01 0 0 0
1010 2 1.1226900799154098e+01 3.1362359020763604e+00 1.2275757141476992e+01 0 0 0
1011 2 1.0225968712629919e+01 3.1371583795999745e+00 1.1025725003448423e+01 0 0 0
1012 1 7.2911476139446885e+00 5.0534959723074655e+00 1.2975176821790569e+01 0 0 0
1013 2 7.4230945132738295e+00 4.2395375449334791e+00 1.2481487457335859e+01 0 0 0
1014 2 7.3412716216666176e+00 5.7502315565418494e+00 1.2268063334856620e+01 0 0 0
1015 1 1.0822431803508779e+01 6.4107874309120563e+00 1.2543634051766089e+01 0 0 0
1016 2 1.0836684550585208e+01 5.4589397637210650e+00 1.2325430156740619e+01 0 0 0
1017 2 1.1689971538174305e+01 6.6760760563529278e+00 1.2884609426100985e+01 0 0 0
35 2 9.6052856429228797e+00 1.8332002807302294e+00 3.2447500504409232e+00 0 0 0
1019 2 7.7997370961770169e+00 1.3777098284143099e+00 1.6209751553996419e+01 0 0 0
1109 2 5.7594699643615588e-01 6.2519750279970436e+00 1.5877730404175637e+01 0 0 0
677 2 1.1925927609572836e+01 8.6555080093904895e+00 7.4838903052051462e+00 0 0 0
1081 1 4.4682542327153589e+00 8.2900110882213180e+00 1.5723605415985666e+01 0 0 0
1082 2 4.8446320583671625e+00 7.9247241285802366e+00 1.4873186081977261e+01 0 0 0
1083 2 4.4139568280611226e+00 7.4667154433082539e+00 1.6303622655044023e+01 0 0 0
1084 1 2.5794503173137473e+00 8.1720219878102558e+00 1.3621012573956580e+01 0 0 0
1085 2 3.2067259944800490e+00 8.3547833507196145e+00 1.4343097390880196e+01 0 0 0
1086 2 3.0820321407981188e+00 7.3577728843520962e+00 1.3206764342123003e+01 0 0 0
1087 1 6.0576805126152431e+00 1.0899628568267543e+01 1.4823334874292941e+01 0 0 0
1088 2 6.0086572622347436e+00 9.9677297148397876e+00 1.4953066642099969e+01 0 0 0
1856 2 1.0004631202142225e+01 5.8094231101834004e-01 1.7848508190822962e+01 0 0 0
1090 1 3.0733355428637164e+00 1.1461284571443542e+01 1.5247717446767718e+01 0 0 0
1091 2 2.7220407981824608e+00 1.0614663077648604e+01 1.5682166750535918e+01 0 0 0
1092 2 2.5590996049745005e+00 1.1450577188847216e+01 1.4386885774714100e+01 0 0 0
1093 1 1.6212650605621619e+00 9.5790844894276201e+00 1.6200100805769068e+01 0 0 0
1094 2 1.5077534894712656e+00 8.5820584606651167e+00 1.6169686464087825e+01 0 0 0
1095 2 8.0756542164549849e-01 1.0013086519936772e+01 1.5854193029920213e+01 0 0 0
99 2 1.8348789064055543e-01 3.8252303608908171e+00 4.2782459545256657e+00 0 0 0
1097 2 7.9322058385811889e-01 8.0268098728220458e+00 1.3514807475079049e+01 0 0 0
1099 1 4.4543129757569861e+00 9.6018864248535234e+00 1.2052990962152318e+01 0 0 0
1100 2 3.6185662340626861e+00 9.2553256731297822e+00 1.2529407739779622e+01 0 0 0
1101 2 4.3125666632259367e+00 1.0592704203814009e+01 1.1912012528236557e+01 0 0 0
1102 1 1.3173401516614831e+00 1.1314736789484956e+01 1.2850166779465482e+01 0 0 0
1103 2 1.1523261736006829e+00 1.0515838241003285e+01 1.2232296664995166e+01 0 0 0
1104 2 5.9964383237605601e-01 1.1312768555105098e+01 1.3473401388155292e+01 0 0 0
1260 2 6.9315701369897775e+00 1.2181213850605122e+01 1.5820338015584802e+01 0 0 0
1108 1 1.0922206329939639e+00 6.6758565134018246e+00 1.6546704715840992e+01 0 0 0
780 2 7.0856015705831075e+00 1.2266130593142435e+01 1.0309621212677914e+01 0 0 0
1110 2 1.1472897452866446e+00 5.9750238276530530e+00 1.7268632176947719e+01 0 0 0
1111 1 1.0729016668889001e+01 8.1445030313452715e+00 1.5546451358149282e+01 0 0 0
1112 2 1.1481359448206939e+01 8.0794363658765374e+00 1.4895038667876443e+01 0 0 0
1113 2 9.9924658999972724e+00 7.8271402053468719e+00 1.5003010718741498e+01 0 0 0
1114 1 8.8879175459707120e+00 8.1005011329380174e+00 1.3481610941216559e+01 0 0 0
1115 2 9.0022496266742209e+00 7.2442868171934531e+00 1.3019480308509147e+01 0 0 0
1116 2 7.9235311311194652e+00 8.1873115709752948e+00 1.3707240394779856e+01 0 0 0
33 2 1.1568426577616755e+01 1.5631072892052935e+00 4.0106348298819601e+00 0 0 0
1120 1 9.4127325520740097e+00 1.1097337681695622e+01 1.5320788546105453e+01 0 0 0
1121 2 8.9730289261504534e+00 1.1185304857817094e+01 1.4467829028621143e+01 0 0 0
1122 2 1.0408323568943151e+01 1.0988316919328387e+01 1.5077249804811894e+01 0 0 0
1123 1 7.7222073098457633e+00 9.1063838235140047e+00 1.6239355013436786e+01 0 0 0
1124 2 8.4313918706974089e+00 9.7490999855834790e+00 1.5888455524687718e+01 0 0 0
1125 2 7.2558428651023581e+00 9.6493360448312036e+00 1.6914491163661840e+01 0 0 0
1126 1 6.1444371189012479e+00 8.1102559753524499e+00 1.3618397023711619e+01 0 0 0
1127 2 5.9986572650141747e+00 7.2176520197955645e+00 1.3287512129754004e+01 0 0 0
1128 2 5.6742444136126080e+00 8.6809557866742413e+00 1.2983682080366625e+01 0 0 0
1129 1 1.0822185967796131e+01 9.5941881938879483e+00 1.2385478640906369e+01 0 0 0
1130 2 1.0110401597194167e+01 9.1203805449135178e+00 1.2912873646250093e+01 0 0 0
1131 2 1.0863862504542205e+01 9.1010415393727975e+00 1.1514425222923139e+01 0 0 0
1132 1 8.0070472114551627e+00 1.0925226129607378e+01 1.2939948169405159e+01 0 0 0
37 1 1.2098658714526044e+01 4.8597852462179683e+00 3.5513413317692186e+00 0 0 0
1134 2 7.1815139686932490e+00 1.0903443238633558e+01 1.3404760558095067e+01 0 0 0
516 2 9.1413168817808508e+00 8.4145724919210607e-01 7.8579103663396452e+00 0 0 0
1137 2 1.0984511599735100e+01 1.1440453224609366e+01 1.2019155427995594e+01 0 0 0
1138 1 7.6733465525673079e+00 6.6645468109085568e+00 1.6733923860268202e+01 0 0 0
1139 2 7.8740100348017377e+00 7.5874725337506570e+00 1.6540509693139086e+01 0 0 0
1140 2 8.3944525883062031e+00 6.2942415363255169e+00 1.6180930282406280e+01 0 0 0
1710 2 2.8375206837444755e-01 1.2426679122479880e+01 2.1500592117270770e+01 0 0 0
1739 2 6.5182743635557836e+00 1.2273196997356987e+01 2.2027740324349899e+01 0 0 0
897 2 1.1281000563053873e+01 4.4780542285471930e-01 7.2035941753520882e+00 0 0 0
152 2 1.1593850439266721e+01 7.7231459068111574e+00 3.5169883107793756e+00 0 0 0
162 2 8.9214716235433826e+00 1.1595248938143481e+01 4.0545720288291740e+00 0 0 0
1038 2 1.1800121400020974e+01 1.8047151561203043e+00 1.4041906180684476e+01 0 0 0
1606 1 6.2254083948453953e+00 8.0404474806289699e+00 1.9111026362718906e+01 0 0 0
655 1 1.0813769472441528e+01 1.2226027164107029e+01 6.4427921389970582e+00 0 0 0
637 1 1.2135456518310390e+01 1.0887060968839302e+01 9.3702589733416364e+00 0 0 0
1441 1 4.5361989819747723e+00 1.6825115202872134e+00 2.1262555961676412e+01 0 0 0
678 2 1.1806169631018125e+01 7.0944860754760013e+00 7.3220647734184254e+00 0 0 0
1443 2 4.8649969628627607e+00 2.4658675984647185e+00 2.1781897826990839e+01 0 0 0