LAMMPS data file via write_data, version 8 Apr 2021, timestep = 200000

6144 atoms
2 atom types

0.06530664308537694 59.84312773754605 xlo xhi
0.13760267106702978 28.202863328932033 ylo yhi
0.143309230669037 27.268135769332012 zlo zhi
10.02225796877585 10.166120646171546 7.089275550476695 xy xz yz

Masses

1 16
2 2

Atoms # atomic

1 1 7.484223810026762 5.3795200543873385 4.414981524626537 0 0 0
2 2 6.641694966324341 4.981836034414987 3.971776056200131 0 0 0
3 2 7.176608942581442 6.322231090102188 4.572914543740661 0 0 0
4 1 9.882370806496118 6.952563539410958 10.940221874052547 0 0 0
5 2 10.322957798719354 6.724160121854793 11.806523862955856 0 0 0
6 2 9.546799807155695 7.863273167650301 11.084848352776032 0 0 0
7 1 10.077535497535429 12.37805540304438 4.161470864621375 0 0 0
8 2 10.494502331999957 11.855076353217399 4.929414993394463 0 0 0
9 2 9.73131349197702 13.136405839592305 4.675487528280393 0 0 0
10 1 12.460165811171741 13.832490175181038 11.14665251899941 0 0 0
11 2 13.06886324802346 14.450405143776711 10.63774157884063 0 0 0
12 2 11.734195656352341 13.532694366085105 10.564487148216116 0 0 0
13 1 14.790345886815462 5.444190609080888 4.003273211071198 0 0 0
14 2 15.194850950318282 4.9791157856722 4.7352897217583125 0 0 0
15 2 14.597804778079258 6.345004126220253 4.405077634094197 0 0 0
16 1 17.478536665545775 7.0684217961601705 11.038767622188631 0 0 0
17 2 17.859312591762862 6.34180628667834 11.586424310886942 0 0 0
18 2 18.09678034343096 7.394979711846062 10.324661250811134 0 0 0
19 1 17.226177531666984 12.314809593909068 4.316827888500827 0 0 0
20 2 18.00807218380896 12.435525332245774 3.820357222627427 0 0 0
21 2 17.49096909649795 12.0438352925109 5.2179579599673 0 0 0
22 1 19.960904575196277 14.069200242492446 11.321995275426668 0 0 0
23 2 20.775419651464244 14.212370653046818 10.815984246185536 0 0 0
24 2 19.708826252895946 14.97633717344776 11.58141975123622 0 0 0
25 1 11.681963452456559 8.271954273612735 6.4186203093274035 0 0 0
26 2 10.903832098164608 8.63070936393761 5.937469953053879 0 0 0
27 2 11.271916567569978 7.532328856472484 6.87916748404054 0 0 0
28 1 14.047527424697805 10.004015716667888 13.239152359696146 0 0 0
29 2 14.378477648351495 9.4956549149666 12.398179441522885 0 0 0
30 2 13.291336282753807 10.45778124873824 12.7392158466757 0 0 0
31 1 13.971024568241404 15.201538737430576 6.738293628743481 0 0 0
32 2 14.458464893964731 14.901140087909292 5.883177043967589 0 0 0
1994 2 20.4144304992222 3.9462802102936805 13.836084391335943 0 0 0
113 2 15.342740050212226 6.86583829296813 13.743665075256084 0 0 0
37 1 19.001309073306228 8.254924208895975 6.645861516549185 0 0 0
38 2 18.188440251394404 8.661330681140903 6.415971033929657 0 0 0
39 2 18.776933803884784 7.658975557728981 7.3562075899365045 0 0 0
40 1 21.420017969893966 9.92496973539487 13.208046717870774 0 0 0
345 2 6.032851271958287 12.907319990559115 4.213028359550333 0 0 0
42 2 20.85078985358055 10.555077540696084 12.807082110005588 0 0 0
43 1 21.418398931208333 15.05596129915179 6.4212870234011925 0 0 0
597 2 33.35967535625305 8.955485031641583 2.292247721779622 0 0 0
46 1 24.310538691320073 17.050195612515893 13.220771893447942 0 0 0
230 2 12.17512189291371 1.2187651924262868 1.73692895833367 0 0 0
45 2 21.73834117148375 14.500135511773388 5.7152924495954025 0 0 0
49 1 5.189032219128716 3.8624341306809233 3.116537885050143 0 0 0
50 2 5.337893507385071 2.9058354093396193 2.857585523025097 0 0 0
51 2 4.56591346726077 3.772629207275483 3.845316789587509 0 0 0
52 1 7.647026708892635 5.513137768358435 9.778388104233152 0 0 0
53 2 7.313582253138661 5.833503784091575 8.920784855911883 0 0 0
54 2 8.554209895104458 5.76679215046204 9.973870177989278 0 0 0
55 1 7.629288357750051 10.845021278352807 3.0522098800588653 0 0 0
56 2 8.063198370205278 10.031535073855366 2.87789446701177 0 0 0
57 2 8.310562503780707 11.4412356820568 3.3642723113601622 0 0 0
58 1 10.443160856379832 12.587290398008735 9.907030145899704 0 0 0
59 2 9.95286109987501 12.979447980997895 9.180177464778735 0 0 0
60 2 10.902413475706041 11.837668279063058 9.560739030085115 0 0 0
61 1 12.587960210330134 4.09350193438329 3.1699084356276224 0 0 0
62 2 13.408065137830251 4.611620559449274 3.25457747453228 0 0 0
63 2 12.216609274436301 4.327992667458165 2.282163371283351 0 0 0
64 1 14.905166556903792 5.605623274032124 9.911084907007343 0 0 0
65 2 15.716487563287156 6.004305863885147 10.27883562884968 0 0 0
66 2 15.236777512070999 4.7732252991343955 9.400198642798332 0 0 0
67 1 15.216382999923814 10.917934076432795 3.1334373352644875 0 0 0
68 2 15.963163154384665 11.402552422886535 3.4954698389563816 0 0 0
69 2 15.381689054550968 10.033704380747405 2.7474635413407134 0 0 0
70 1 17.88016841716224 12.815850099506939 9.973915782980095 0 0 0
71 2 17.354689742215925 13.344714300129864 9.333110502582484 0 0 0
72 2 18.556183987406957 13.391602284468396 10.365724769672967 0 0 0
73 1 1.2676666588191106 0.6492897151035417 0.7666991407638202 0 0 0
4737 2 39.587698250034656 13.741380813124316 17.34411817486177 0 0 0
79 1 3.758993310754846 7.875587487652512 0.8467808924632462 0 0 0
422 2 34.02759973056605 7.50067315549097 5.699490674462395 0 0 0
81 2 4.408227840350207 7.34749393984789 1.2680669865504486 0 0 0
82 1 6.441226956988099 9.600545513178943 7.546205789797036 0 0 0
84 2 7.277514841312924 9.200947515354969 7.800466068630134 0 0 0
85 1 8.59547224263087 1.0849385634095636 0.9267162431617818 0 0 0
87 2 8.453383547248192 1.5383767021224033 1.7678614898304836 0 0 0
2132 2 38.457244501503595 12.71210986105904 15.567932369510196 0 0 0
90 2 11.546565946741332 3.397800513963637 6.990975102363092 0 0 0
91 1 11.145356255065133 8.036476549095324 0.7656150070395735 0 0 0
93 2 11.88151933522121 7.555808888136086 1.1660160446668404 0 0 0
94 1 13.78016574149724 9.50071446765172 7.906972456942158 0 0 0
95 2 14.516101297211849 9.052859861887942 8.430612170881036 0 0 0
96 2 13.285524881459596 8.834805689459937 7.36419338216666 0 0 0
97 1 5.402339770639856 4.294324285569527 6.143470124593417 0 0 0
98 2 5.6616327111424125 4.806716738873953 6.915859153424319 0 0 0
99 2 4.6410520303251275 3.8054533329737743 6.431049340136436 0 0 0
100 1 7.88914905746617 6.358255922394272 13.005060129085738 0 0 0
101 2 7.410568791694566 6.772973958010068 12.224315585673542 0 0 0
102 2 8.485469139102511 5.741844423403988 12.612948353952843 0 0 0
103 1 7.949528053496675 11.38827398579866 6.207909209095582 0 0 0
104 2 7.3957821925533755 12.03021733671608 5.677177631487775 0 0 0
105 2 7.330726704158786 10.795945122414956 6.704851047091544 0 0 0
106 1 10.160869508933551 13.256206777791448 12.963836696239918 0 0 0
107 2 10.682488460408663 13.861718849468065 13.568443930362838 0 0 0
108 2 10.805743435336623 12.820343265185333 12.424730546746762 0 0 0
109 1 12.760626483072832 4.346934101852675 6.170936793574313 0 0 0
110 2 13.367023786171538 3.6588003378770075 5.834058171948246 0 0 0
111 2 12.380069601733553 4.792082383528693 5.397522515017741 0 0 0
112 1 15.123676736918837 6.3198864147359375 12.939745887541447 0 0 0
114 2 14.51024704070624 5.65448914954545 13.28193377369198 0 0 0
115 1 15.249347780521074 11.381807017646635 6.45601304667728 0 0 0
116 2 14.790818502666438 10.741722941264703 7.0497741047654925 0 0 0
117 2 15.576139229685403 12.03422363131687 7.0575786292705684 0 0 0
118 1 17.64188832065538 13.24663319688146 13.480790584708934 0 0 0
119 2 16.93301341573438 12.616673045373018 13.749809322431085 0 0 0
120 2 17.33343618959475 13.775393154211786 12.75361576470882 0 0 0
121 1 2.963033068983793 3.1847345124921187 4.517396643950172 0 0 0
123 2 3.236833270493839 2.2886464060627962 4.7782996710831585 0 0 0
124 1 5.625669827731648 4.946829535110011 11.237619869371064 0 0 0
125 2 6.411546684731599 5.27858642261601 10.680939622425766 0 0 0
126 2 6.010878535504906 4.098963399652059 11.55254757576571 0 0 0
127 1 5.669060062231594 10.020811764993763 4.5696955795964085 0 0 0
1920 2 24.049419875621837 20.707081583981356 25.734020597108167 0 0 0
129 2 6.506508604863449 10.21796478929843 4.089479976371069 0 0 0
130 1 8.224227647752272 11.512918194441557 11.346706988815308 0 0 0
341 2 7.032074309069549 8.924891574358593 11.5128458047137 0 0 0
132 2 9.00589246750597 11.84365449426756 10.820844853104223 0 0 0
133 1 10.605844983121012 2.857976516207251 4.388527422682189 0 0 0
134 2 11.13813837848686 2.1405856601199247 4.805668712977642 0 0 0
135 2 11.234697791170227 3.298853294060058 3.768252202899301 0 0 0
136 1 12.836048042266892 4.39418833226669 10.902775242964173 0 0 0
137 2 13.585313737155086 4.91202055815712 10.507585950322284 0 0 0
138 2 12.65375493713446 4.774106068719208 11.765111180782544 0 0 0
139 1 12.966777599855527 9.923156109641114 4.326051947352185 0 0 0
140 2 13.760603828371373 10.333463370327147 3.997911534691005 0 0 0
141 2 13.247417074997792 9.067972789036213 4.711862826343999 0 0 0
142 1 15.878944687032442 11.404702958522213 11.246850724954172 0 0 0
143 2 16.689813691608336 11.842153739373163 10.8684366024983 0 0 0
144 2 16.25451698381761 10.72420993978784 11.844575128155345 0 0 0
145 1 6.61977569251034 2.0364504917471 5.238460883351521 0 0 0
2066 2 26.35982759853786 5.029807646696854 18.336427195064818 0 0 0
147 2 6.241547062597383 2.77290013665542 5.7122532004904905 0 0 0
148 1 9.27765850132725 4.096182302072232 12.198940293057607 0 0 0
149 2 9.812937255965963 4.223661721197183 11.354318634744912 0 0 0
131 2 7.524861370978034 11.55534389322002 10.649643252601006 0 0 0
151 1 9.377339151605332 9.299730757842681 5.150552267220933 0 0 0
152 2 9.203080006573956 10.162630498092117 5.458643886471035 0 0 0
153 2 9.66388011809447 9.428683103923472 4.207945266246617 0 0 0
154 1 11.75402003082354 10.972416177851175 12.173635187954606 0 0 0
155 2 11.138106992411267 10.193654625092064 12.16650659294914 0 0 0
156 2 11.818460070816483 11.23288714982485 11.240288718126262 0 0 0
157 1 14.311006684588607 2.4149537745720324 5.458676030795162 0 0 0
1916 2 22.932855757400244 18.520800171969306 18.99425094193685 0 0 0
159 2 14.65823262782108 2.407922122723196 4.5571365031708995 0 0 0
160 1 16.809814838741044 4.164054378894728 12.394738946559428 0 0 0
161 2 16.464534995191972 5.055416148477927 12.560683078176526 0 0 0
233 2 16.029899176697715 2.7295982923358393 8.772930185448766 0 0 0
163 1 16.650758664556896 9.402795576277954 5.498820253242617 0 0 0
164 2 16.040003797618812 10.127730898733605 5.719112441856401 0 0 0
165 2 17.089347621163203 9.733177213177704 4.726945725891796 0 0 0
166 1 19.27913434062189 10.907885103479366 11.962033321172093 0 0 0
167 2 18.679315088780157 11.632784303357601 12.279039684812716 0 0 0
168 2 19.75535887772417 11.252400472845462 11.174806582637608 0 0 0
169 1 9.10948189957551 4.278625443438408 6.229138163464358 0 0 0
170 2 9.733637865760615 3.860390113113597 5.586596135641126 0 0 0
171 2 8.428933460503787 4.740081599206592 5.652614387433271 0 0 0
172 1 11.888843232552002 6.137725745490179 13.01511134812054 0 0 0
173 2 11.955028444799344 6.99999341014413 13.421726249494284 0 0 0
206 2 16.428983565374917 2.828850987949956 3.2932560121855534 0 0 0
175 1 11.657525229682 11.288160679099034 6.325091700017535 0 0 0
176 2 12.302337391400368 10.774005326639346 5.828862069841887 0 0 0
177 2 12.062018435337006 12.042284354762703 6.826683648331686 0 0 0
178 1 14.060706457174257 12.853427908339993 13.043962022346062 0 0 0
179 2 13.465788832572175 13.156614188286392 12.311422743347777 0 0 0
180 2 14.773926080945053 12.363687533235622 12.652058281262393 0 0 0
181 1 16.460143707285205 4.686891199811669 5.976254093517833 0 0 0
182 2 17.035767470109015 4.0564448123455525 5.4814639485600525 0 0 0
183 2 17.029421955898236 5.212845108320679 6.580966530230053 0 0 0
184 1 18.943548481804182 6.063547418506107 13.026451614073263 0 0 0
187 1 18.77963349378907 11.503038507948714 6.664534359547602 0 0 0
188 2 18.44211896050954 10.87871377188012 7.33250033043799 0 0 0
189 2 19.347839244618832 12.190907004003394 7.022172341723381 0 0 0
190 1 21.693999509360328 13.153162141503953 13.08231467594057 0 0 0
192 2 20.90692303550361 13.396430148731937 12.518665750044535 0 0 0
193 1 8.122002844548554 2.730398824144748 3.051561967295211 0 0 0
194 2 7.402592404991158 2.660031350440971 3.679137507202377 0 0 0
195 2 8.896514288686241 2.72498125357491 3.6126311191691634 0 0 0
196 1 10.478661237971691 4.3855084140222305 9.556296805675924 0 0 0
197 2 10.73934882849867 3.6657167919005085 8.843343680826075 0 0 0
198 2 11.305397868472998 4.508778643278921 10.096660637699193 0 0 0
199 1 10.72159615534801 9.819931325371613 2.711494090179157 0 0 0
200 2 10.815412814687457 9.07998704106103 2.0913823799952556 0 0 0
201 2 11.573287327328073 10.013713938146038 3.185275383632301 0 0 0
202 1 13.582859048403089 11.655686442812483 9.602340526126659 0 0 0
203 2 14.432005417056494 11.658256246639773 10.038479995839769 0 0 0
204 2 13.592486143409683 10.834306347051045 9.045299399865991 0 0 0
205 1 15.673406632869572 2.8968683230418066 2.742320287330666 0 0 0
207 2 15.77397758223896 2.2939761398997756 1.9723364724099692 0 0 0
208 1 18.103695390142335 4.254170339867465 10.009787015780779 0 0 0
209 2 17.48371673646463 4.175158701437265 10.787240870963213 0 0 0
211 1 18.180502533161928 9.75641672155765 3.0582899715588248 0 0 0
212 2 18.10559758817774 8.893451352385638 2.6581824825644964 0 0 0
213 2 17.9751894660021 10.337093867594616 2.335122109263748 0 0 0
214 1 20.904000333625998 11.62645061318442 9.73143856362431 0 0 0
215 2 21.76536820957559 11.743197437646069 10.125203534986777 0 0 0
216 2 21.13472449560388 11.034917159679555 8.947509991388872 0 0 0
217 1 5.4577643880714914 1.5118404016845508 1.8940408456787419 0 0 0
128 2 5.013668106569331 10.060683549250165 3.889646143216347 0 0 0
219 2 5.64801663036068 1.6406143375308253 0.9089890497367342 0 0 0
220 1 8.161072967935796 3.0707043444749074 8.526402423437268 0 0 0
221 2 8.075495309353059 3.8568614179418272 9.101069750017253 0 0 0
222 2 8.524307374549359 3.5767503142556762 7.744791729054807 0 0 0
223 1 8.034010662334653 8.165230987028032 1.980292767322898 0 0 0
224 2 8.770090246839551 7.603541959783488 2.249603623946805 0 0 0
225 2 8.088790629330894 8.654983450498783 1.1240385703010383 0 0 0
226 1 11.045823927508351 10.17748025622576 8.744832858743099 0 0 0
227 2 11.688913073368143 9.478674767705611 9.019006774478022 0 0 0
228 2 11.290844098496676 10.28120092140953 7.7906597600050045 0 0 0
229 1 13.084196055517264 1.5908676644927722 1.713469411750927 0 0 0
423 2 34.38037671028752 8.611137028026636 6.830826554363333 0 0 0
231 2 13.15711976474365 2.3117975543590807 2.3762074308952013 0 0 0
232 1 15.425794220508145 3.425308159885943 8.388928161005582 0 0 0
383 2 20.451422648811814 16.80303334234216 12.439274870179474 0 0 0
234 2 15.979908560736147 3.8232483108236224 7.63296740636269 0 0 0
235 1 15.390580419819722 8.358179808563381 1.807425699293134 0 0 0
236 2 15.638997486031473 8.808689345755143 1.0000861792008315 0 0 0
237 2 16.021558254789678 7.6556283187903755 2.0704240471873985 0 0 0
238 1 18.054825127753272 10.231805833042754 8.998383430829657 0 0 0
239 2 18.768708414949376 9.563757919140711 9.27226770196143 0 0 0
240 2 18.30323879506065 11.039581695089051 9.464692952214497 0 0 0
241 1 7.270980754283281 4.845402219720698 1.3155959811764437 0 0 0
242 2 7.355929140598703 4.122358671200084 1.9766505487928727 0 0 0
243 2 6.5780615907711635 5.473038548588379 1.5977163376109966 0 0 0
244 1 9.974508289800033 6.409291640812837 7.753350239258451 0 0 0
245 2 10.208938948995614 5.912928730879388 8.536885054447335 0 0 0
246 2 9.582341740366868 5.693648719660235 7.162833978541724 0 0 0
247 1 9.953748500898417 11.951946118968841 1.1126421698220137 0 0 0
248 2 9.325598237717795 12.560888104269686 1.443373352021772 0 0 0
249 2 10.154471086904339 11.216647110823976 1.7537830154798977 0 0 0
250 1 12.377760551260977 13.234835207584705 7.916292904572309 0 0 0
251 2 12.97607194168279 12.689131351729127 8.523267845515994 0 0 0
252 2 12.989286744699656 13.900520650353416 7.55674365111753 0 0 0
253 1 14.766290041930489 4.639401543149473 1.1966407025568315 0 0 0
254 2 15.102760151748871 4.021656162625967 1.9169518914108488 0 0 0
255 2 14.221803142311721 5.398156777156165 1.5651742429149786 0 0 0
256 1 17.542082740863382 6.369656573165839 7.909897247574766 0 0 0
257 2 18.011964568651745 5.991314169032763 8.708997399928272 0 0 0
258 2 16.867469144992818 6.9763456146036935 8.345873939856348 0 0 0
259 1 17.342414196934513 11.572220745298187 1.1288834158164323 0 0 0
260 2 16.754298498343086 12.347681906507942 1.1973707281232313 0 0 0
516 2 22.911906216990417 12.191473705160021 11.853073601707077 0 0 0
262 1 19.855034311544383 13.68446009897218 7.9174456317569755 0 0 0
263 2 20.25931920216787 13.160606504396084 8.649196532774786 0 0 0
264 2 20.568505976446296 14.075063743214121 7.368692581637913 0 0 0
265 1 9.741263215382858 5.965151104534991 2.7961791218235295 0 0 0
266 2 8.998907952758167 5.525670826481276 3.197588671124485 0 0 0
267 2 10.17249401785639 5.373142220486296 2.1363968582013886 0 0 0
268 1 12.251165032293368 7.72517080589948 9.817591646027758 0 0 0
269 2 12.438121159190318 7.021709506293204 9.148113567881296 0 0 0
270 2 11.38518767170644 7.419952754986303 10.201852316000297 0 0 0
271 1 12.004432988671336 13.769671023390831 3.129887858253649 0 0 0
272 2 12.70209189616011 13.957600314237922 3.7671703992619108 0 0 0
273 2 11.348335443993978 13.091443849463358 3.4284544631040896 0 0 0
274 1 14.354965737756876 15.16479853247913 9.908331888342977 0 0 0
275 2 14.122242360073573 15.990697946736915 9.466427450251869 0 0 0
276 2 15.197192343307306 15.334649044537091 10.39263015140265 0 0 0
277 1 17.143094473997554 6.2169408271721345 3.000982992215769 0 0 0
278 2 16.338888402420086 5.742212274144992 3.271690479116238 0 0 0
280 1 19.562766175520125 8.125453188738216 9.684275529551154 0 0 0
282 2 20.300153542382922 8.21980305091561 10.329406913452999 0 0 0
283 1 19.322844747459495 13.139499633570038 2.860617554980979 0 0 0
285 2 20.147553872967823 13.425801732077183 3.4576459786948126 0 0 0
286 1 22.20957642087186 14.503700101748302 9.774841104064098 0 0 0
287 2 22.84221875643521 14.792614400809006 10.439116705943913 0 0 0
288 2 21.819398944742613 15.372263836385889 9.541897221731297 0 0 0
289 1 5.696153075402754 6.736114224686512 2.317138427116756 0 0 0
290 2 5.322588244186071 6.64872972613369 3.2155834101233043 0 0 0
291 2 6.4162247399125185 7.405618004955904 2.363889310830832 0 0 0
292 1 8.800539980477753 8.685454198540521 8.731472021385928 0 0 0
293 2 9.367607909673538 7.9498736622840935 8.433584425752825 0 0 0
294 2 9.500632153724483 9.353548524495023 8.852919906009905 0 0 0
295 1 8.249436844819327 13.873568655129764 2.2634607482523994 0 0 0
296 2 7.869646584743662 13.833716847815243 3.1327515542655937 0 0 0
34 1 16.557302798087335 16.94416885366165 13.327701414629297 0 0 0
298 1 10.986725532095711 15.511419249068632 9.139629123175967 0 0 0
299 2 11.269957772024437 14.630313451647476 8.868586339964194 0 0 0
3735 2 2.6492460674518923 5.523615014382906 2.087640219427776 1 0 0
301 1 13.204759818614763 6.778492997122712 1.971475009464581 0 0 0
302 2 12.72568977374748 6.835246535085641 2.9149224566584304 0 0 0
303 2 13.829093967087392 7.5138522900946985 1.9838087400243052 0 0 0
304 1 15.892954636996953 8.347098079704288 8.849045178498134 0 0 0
305 2 15.639098662206175 8.445965164388767 9.766950488513036 0 0 0
306 2 16.549213224111693 9.134743341667551 8.79166314015895 0 0 0
307 1 15.942292355105643 13.827529147126153 1.7450972625702326 0 0 0
591 2 31.730373052083646 2.909998103872382 3.1438438951969125 0 0 0
1880 2 12.155320350874694 17.877959351184852 18.122636478260343 0 0 0
310 1 18.28739130660659 15.615840557010118 9.004179845960072 0 0 0
311 2 18.696753159761293 14.73493956031846 8.577181523476193 0 0 0
1832 2 12.74676264164442 17.68361444410727 15.049300614817982 0 0 0
313 1 3.7995769053743387 4.84081797906729 0.9396341209920688 0 0 0
314 2 3.669648956194982 4.065435504283916 0.31171277952130944 0 0 0
315 2 4.413220208403425 4.464811905081938 1.5926533755562526 0 0 0
316 1 6.301431904978518 6.459723806724876 7.747049198659243 0 0 0
317 2 6.6692440870173195 6.990346207750916 7.036916140323169 0 0 0
318 2 5.72080182661155 7.044563869482302 8.298797735335443 0 0 0
319 1 6.558714881050654 11.686588787585231 0.7612167554265952 0 0 0
320 2 6.048035735870104 10.916743300165288 0.33780613188011827 0 0 0
321 2 7.067161112235419 11.359855095167303 1.5084298718257423 0 0 0
322 1 8.842321227382056 13.540114154529887 7.947680774051803 0 0 0
323 2 8.156762405084136 13.999768441069287 8.440442747400919 0 0 0
324 2 8.453269247262366 12.682499065408429 7.7397134701138395 0 0 0
325 1 11.091526240922443 4.659358165310831 0.9133585694547077 0 0 0
680 2 22.494726869877404 14.033392544316248 1.373368946822036 0 0 0
328 1 13.497505677124918 6.208949384522895 7.793771112114327 0 0 0
329 2 13.305011483688592 5.445215727761624 7.242507291305819 0 0 0
330 2 14.238197570425914 6.034508269010644 8.386410125430265 0 0 0
331 1 13.616178126887055 12.139449097874337 1.3334223058872188 0 0 0
332 2 13.080312857448307 12.502344397954541 2.0576194598277473 0 0 0
333 2 14.412808335425035 11.750846849204944 1.7527149277465095 0 0 0
334 1 16.207929517395502 13.48382467394478 7.922776693038373 0 0 0
335 2 16.493527767290054 13.962377315959266 7.128910106980508 0 0 0
336 2 15.53774854246449 13.967288873175045 8.394737327860371 0 0 0
337 1 4.3747894638983755 6.477936384595317 4.734871362544515 0 0 0
338 2 4.820997135778796 5.728373910322806 5.182236948098171 0 0 0
279 2 17.499380257764546 5.526662608428847 2.3580866461385983 0 0 0
340 1 6.872894363746727 8.189543935375738 10.870597871666192 0 0 0
755 2 27.76591602386592 16.635932581497624 12.134197498823054 0 0 0
342 2 7.592259159375793 8.21372655384513 10.18894684019136 0 0 0
343 1 6.85480185121954 13.30357790331911 4.61019465681477 0 0 0
429 2 37.03305540584824 15.765344414469517 6.708397374089773 0 0 0
185 2 19.212350196591107 6.966653845797199 13.343919515774319 0 0 0
346 1 9.292062050336337 15.013655751373495 11.319913839704098 0 0 0
347 2 10.004632329308226 15.17550626218117 10.692448851786333 0 0 0
348 2 9.634076679200119 14.387170434141574 11.998282581668734 0 0 0
349 1 12.032493975936813 6.562660673162041 4.288918877823541 0 0 0
350 2 12.000781019504936 7.266438572235782 4.953556525113969 0 0 0
351 2 11.15629138555122 6.423829670357693 3.9894870821431434 0 0 0
352 1 14.41352159235657 8.353369656453793 11.316333669497634 0 0 0
353 2 14.546622387431153 7.52975736095045 11.813418767189555 0 0 0
354 2 13.563916188825633 8.154529839615636 10.784670260743983 0 0 0
355 1 14.49439956560003 13.776696033884551 4.26238453819016 0 0 0
356 2 14.620316351342032 12.965331352413083 4.749765725862039 0 0 0
357 2 15.129190209143172 13.789953898106672 3.5229778857241003 0 0 0
358 1 16.88783044086997 15.096495911895849 11.26829750143463 0 0 0
359 2 16.984453572936197 15.840309034997022 11.853904220934986 0 0 0
360 2 17.434216199452585 15.348603869994427 10.469064125747602 0 0 0
361 1 7.050153774838204 7.859681175768635 5.403545958559351 0 0 0
362 2 6.3926670088696405 8.494898291257638 5.156567710480392 0 0 0
363 2 7.950536601768381 8.307804586024881 5.252611158494172 0 0 0
364 1 9.602301747127623 9.320829304124638 12.232908072162497 0 0 0
365 2 8.912860950184768 9.950769155270615 11.968029399113478 0 0 0
366 2 9.293658962193966 9.15204144851928 13.144266822895963 0 0 0
367 1 9.300124816969392 14.515826792430873 5.508523304991726 0 0 0
5031 2 9.548507635003823 11.155064638371732 19.46975151436566 1 0 0
369 2 9.119790589555048 14.235329468478142 6.449747318952651 0 0 0
370 1 12.256721743552147 16.462253860734343 12.229825317508388 0 0 0
1951 1 34.11413468949471 18.879545020529097 19.95235586064117 0 0 0
372 2 12.342088260995524 15.711252841904038 11.61047054791776 0 0 0
373 1 14.3711816059509 7.818862586727858 5.567518729263913 0 0 0
374 2 15.296592172065848 8.074835762637191 5.566178070609365 0 0 0
375 2 14.10524690837886 7.374450963279851 6.383769072180109 0 0 0
376 1 17.09718134026704 9.0351128586732 12.716332422846195 0 0 0
377 2 17.97446807055756 9.412683324721025 12.612857536644812 0 0 0
378 2 17.129288458493132 8.225495374212485 12.105816063332284 0 0 0
379 1 17.305785478978507 14.896368447481752 5.487991637466135 0 0 0
381 2 17.276580229510863 14.137066115758351 4.862698081347066 0 0 0
382 1 19.534273434106463 16.534051567478567 12.49073230180863 0 0 0
2142 2 27.46440345876474 6.136979463782999 22.03464189433079 0 0 0
384 2 19.258759576708144 16.314984077605352 13.406774232117206 0 0 0
339 2 3.6154111183924886 6.0833639629412515 4.309837355840805 0 0 0
2135 2 41.09803333800805 14.174431097985165 22.685833633329757 0 0 0
210 2 18.98289357677095 4.3453517314271215 10.373383838688804 0 0 0
284 2 19.67664216109608 12.411141153132974 2.269845426350896 0 0 0
1611 2 6.562979369433131 5.173776003372458 13.618467899685552 0 0 0
1722 2 23.82087819926693 9.204766130452835 27.189207819849592 0 0 0
74 2 11.68318970618531 8.316310891555498 27.124436495536965 0 0 -1
683 2 24.95361607767093 16.05156088722855 8.658539219217761 0 0 0
468 2 20.535411761591106 9.316268111200936 7.336081808526144 0 0 0
512 2 20.09494404286752 10.922305293752311 5.057856477704691 0 0 0
3663 2 1.917611200246883 2.8076261102609403 3.230408847424036 1 0 0
174 2 11.7884247632901 5.503900214468093 13.765195381693403 0 0 0
261 2 17.001877023459397 10.98909705520413 0.3314590061395795 0 0 0
186 2 18.578512411831014 5.573419090069755 13.82290388263459 0 0 0
92 2 10.440852192816344 7.463518543031214 0.3519548846150503 0 0 0
722 2 18.222831787926243 6.050364606705366 4.637647006889965 0 0 0
1617 2 9.346209481781273 11.947285772146953 13.85660148092197 0 0 0
86 2 9.034594634427215 1.7851004596373508 0.3979077046733317 0 0 0
1857 2 11.76037437681953 15.669038369886675 13.577285717485697 0 0 0
1537 1 12.641120102597398 8.635251981762483 17.71483046011285 0 0 0
1538 2 13.00000296395439 8.102746342224005 18.47523117795922 0 0 0
1539 2 11.98360923084237 8.04094451462054 17.254368253401495 0 0 0
1540 1 15.011642506934312 10.708280571095738 24.524029424013698 0 0 0
1541 2 14.747622402705435 11.620712395493294 24.817206584522992 0 0 0
1542 2 14.347130849846902 10.218273181023942 23.951090385150202 0 0 0
1543 1 14.973329334472874 15.628670542115849 17.529888765039345 0 0 0
1544 2 15.461512329529876 15.234553502355208 18.307135031523107 0 0 0
1545 2 14.736278416848865 16.46068604405345 17.96327395929727 0 0 0
1546 1 17.47684202215974 17.58211803837891 24.40195296938988 0 0 0
1547 2 17.263234262994725 18.501159352940665 24.73606854631833 0 0 0
1548 2 17.931289179056535 17.228324563909162 25.18561024140126 0 0 0
1549 1 19.933890587475783 8.731402071529363 17.685421348007992 0 0 0
1550 2 20.6777475975091 8.901792902968367 17.04060928454998 0 0 0
1551 2 19.620093024911927 9.623183621563504 17.88494925930841 0 0 0
1552 1 22.610103951478315 10.72037215781963 24.662660398067334 0 0 0
1553 2 21.922314308739878 10.147047079345834 24.28535297256496 0 0 0
1554 2 23.0826292844532 10.132534662857003 25.330816611958884 0 0 0
1555 1 22.539059769625535 15.673028063257414 17.716930105364273 0 0 0
1556 2 22.13292192744261 16.450116839871132 18.174410148167055 0 0 0
1557 2 23.36175542610771 16.0589993075551 17.307365119274298 0 0 0
1558 1 24.820040294705915 17.674259481496748 24.52718612732858 0 0 0
1559 2 25.559890347598184 18.015451977356076 23.98074361795596 0 0 0
1560 2 24.57806499885942 18.410025578661827 25.11736919434582 0 0 0
1561 1 16.713045284884494 11.542239155438592 19.89555967047822 0 0 0
1562 2 17.046573436131013 11.113800992292036 19.046987720910774 0 0 0
1563 2 15.90832322654564 12.048228488251773 19.6227947977149 0 0 0
1564 1 19.225847037408442 13.423702846793459 26.861684269457154 0 0 0
1565 2 19.42109896637638 12.784242111000818 26.168879772817384 0 0 0
752 2 25.141931100317766 15.315458414099645 5.536887174342808 0 0 0
1567 1 19.046656089249755 18.721088581966434 19.93043690815652 0 0 0
1570 1 21.664401962245623 20.68642811208233 26.65093105796568 0 0 0
1573 1 23.919810215148072 11.864730597518129 20.1449806698489 0 0 0
1574 2 23.2116056601653 12.131147486012523 19.535235757455286 0 0 0
1575 2 23.528757466189667 11.221392709473621 20.7911950260322 0 0 0
1576 1 26.382433832590863 13.479079159182268 26.898637058798553 0 0 0
1578 2 25.602652320367806 13.961352709736511 26.47232324599784 0 0 0
1579 1 26.72387037024801 18.966006493729374 20.145826103897264 0 0 0
1582 1 29.08105334573876 20.56272847606347 26.729309301573956 0 0 0
1814 2 22.432424607024128 8.623746481544204 15.730467892694906 0 0 0
1585 1 10.331548930505214 7.191455883424064 16.63034747909857 0 0 0
1586 2 10.600190335733064 6.4062107838373965 16.069057812850744 0 0 0
1587 2 9.88354210305243 7.727550044730929 15.99403447480388 0 0 0
1588 1 12.895558631820775 9.349899327748162 23.45140491202155 0 0 0
1589 2 12.216304352179165 9.718599261969247 22.72220108980925 0 0 0
1590 2 12.884642466917063 8.404359726327531 23.183834233863777 0 0 0
1591 1 12.613160660295815 14.248194572571833 16.413052923474922 0 0 0
1592 2 12.04618057025561 14.134132965046327 17.19377473706891 0 0 0
1593 2 13.456713924373743 14.68337654454997 16.711852674515224 0 0 0
1594 1 15.47458686317597 16.04894081363168 23.229972733464983 0 0 0
1595 2 14.753665014070055 15.812582187126175 23.90709674384786 0 0 0
1596 2 16.135722314389987 16.477859630000655 23.763229199448133 0 0 0
1597 1 17.852251344081584 7.110904692868759 16.555751260263282 0 0 0
1598 2 18.446694358082226 7.68971480883505 17.082241619466984 0 0 0
1599 2 17.26887439903905 7.587158237545919 15.908924023681228 0 0 0
1600 1 20.307709086611972 9.226878172275057 23.36953983043425 0 0 0
1601 2 20.438110822623297 8.330511099154267 22.982968562598934 0 0 0
1602 2 19.421130656992254 9.20057726611737 23.80131883309259 0 0 0
1603 1 20.437835762505088 14.274114600590762 16.33513719754879 0 0 0
1604 2 21.021438628965463 14.804449946175769 16.90305874884055 0 0 0