LAMMPS data file via write_data, version 8 Apr 2021, timestep = 0

6144 atoms
2 atom types

-2.728890258711851 62.697179389895105 xlo xhi
0 28.100061801638276 ylo yhi
0 27.16116013436777 zlo zhi
10.153660375339939 10.177649174767446 7.114506555473859 xy xz yz

Masses

1 16
2 2

Atoms # atomic

1595 2 20.17990391433107 19.424039205172186 20.944381999644765 0 0 0
1604 2 14.643590272993602 21.175126309073566 23.92917161673197 0 0 0
870 2 6.47552740971788 10.456381135082465 7.688453562346011 0 0 0
987 2 14.640896274179823 12.914338422893561 25.859796648195218 0 0 0
225 2 3.2775895793822603 7.150225262689754 4.287923268835702 0 0 0
52 1 16.638908335821228 27.668636313893785 8.77765450678926 0 -1 0
25 1 10.761079621494694 12.52167200898459 5.785772489781869 0 0 -1
1625 2 15.744662894500092 22.790734993243866 17.899600111409598 0 0 0
2464 1 14.660060778968713 19.84436443149114 6.867536909099907 0 1 0
886 1 14.728746004568261 25.86092040450702 18.296544876897343 0 1 -1
1633 1 16.064134976409616 7.85668370978707 20.931725529878573 0 0 0
849 2 15.16296628368135 21.768383572946984 13.707476050505836 0 0 -1
2443 1 9.258514019765798 12.943474557199501 14.334708897459183 0 1 0
358 1 18.231800780114174 23.30338945339036 23.8217881451958 0 0 0
2466 2 14.516791330972776 20.475163330090332 7.619377516919809 0 1 0
1895 2 8.403253421464875 16.85061739834488 3.8994946050534733 0 0 1
1670 2 17.834734454627554 28.013849044094062 3.1524312905584115 0 -1 0
1634 2 16.103603806216334 8.429838305579572 21.776332024887292 0 0 0
1064 2 23.43862257513377 28.47717998457058 18.030649068892444 0 0 -1
1894 1 9.007738534944092 16.064538404618286 3.8501841894167668 0 0 1
2408 2 6.958422911850644 23.03396366376421 4.552192740170302 0 0 0
1916 2 19.022118788747537 25.029683063661835 15.738133375839748 0 0 0
611 2 7.903795105514521 3.7468437847548586 13.154253811256988 0 1 0
1709 2 13.21601424655449 6.998668751437009 14.014184518857164 0 0 0
487 1 15.994824956062264 23.029478098330525 21.885951286528222 0 0 -1
53 2 16.856955491897143 26.685731419789466 8.770807853196152 0 -1 0
1587 2 10.254447424684955 14.259218329061667 16.902132150409305 0 0 0
1586 2 9.300118732529903 13.565081831227536 15.827786571956272 0 0 0
1784 2 10.232366209051975 28.832818521104006 3.3331838499648594 0 -1 0
2564 2 10.995919094543801 3.833095130528621 3.7040228847025354 0 1 0
416 2 16.87351851228575 20.03348298895336 20.4391577423969 0 0 0
1871 2 18.5667020423213 24.82276798169646 17.97755424106924 0 0 0
610 1 6.960654330484842 3.894392589221672 13.04762576872095 0 1 0
1275 2 9.242034105094184 10.205970742457273 25.46273723183476 0 0 -1
2401 1 16.289549039977132 25.751202776445826 21.360250447102672 0 0 0
5996 2 8.798574491215344 20.511138629679902 12.725877971607856 1 0 0
1708 1 13.517805029924254 6.4035232575743075 14.744428917996164 0 0 0
27 2 9.928825390551122 12.014657149584936 5.65991377655164 0 0 -1
907 1 22.279923534866846 25.708646711549942 19.418623094083674 0 0 -1
99 2 2.5416170365165325 7.4002865139016345 8.844895365298497 0 0 0
1561 1 10.680559377929253 17.594822218628188 18.42919408958839 0 0 0
1901 2 11.357202540199033 10.083438367584558 25.003145503094846 0 0 0
174 2 26.6988768938937 30.971299321558362 17.789544885968525 0 -1 -1
2665 1 9.095513221293636 18.017335840102678 10.651046042570702 0 0 0
924 2 20.762243852550892 17.07796166582897 16.54422520483565 0 0 0
83 2 18.342416032410966 21.951477838588804 20.001614612365273 0 0 -1
224 2 3.219917163790309 7.391953227168851 2.714799718533485 0 0 0
1781 2 10.665301103324449 11.335550870214016 8.726179077147812 0 0 0
1710 2 13.423951454541946 6.876989414389833 15.614176377402128 0 0 0
1689 2 9.105142217647867 7.2215732966058885 10.349801510784621 0 0 0
1705 1 12.798932765719918 16.149188229431484 19.209962151112197 0 0 -1
1773 2 19.147651178884512 29.767002190629373 21.3862454168186 0 0 -1
2624 2 12.393582030188842 17.36775335333732 23.683072236074104 0 0 0
1570 1 11.657550459083541 9.659550561158062 16.397920754397763 0 0 1
2314 1 16.952398799932627 24.454690346001748 11.394183858469047 0 0 1
1129 1 17.19334390716371 16.618366489884703 23.79026323622332 0 0 -1
1107 2 4.72683455673333 14.31650877401933 3.560536327805385 0 0 0
1635 2 15.839319457353945 8.548807416453021 20.30157572149428 0 0 0
1017 2 19.992547087826633 32.083967574205715 16.91076986681423 0 0 -1
246 2 1.5490924423981074 5.40236448256218 7.490313471240048 0 0 0
2313 2 3.593315885170247 11.18165541029154 1.6581578322621546 0 1 0
1059 2 7.5926026471824555 7.297872961765686 23.684093391170475 0 1 -1
896 2 17.573881424970526 30.00827530583238 19.54664666635541 0 0 -1
1658 2 16.539185125115186 31.641944784960778 14.755117184588357 0 -1 0
973 1 13.911402725158784 28.042013975290956 9.079488468631979 0 0 0
1571 2 10.972509652872983 9.272822719344584 16.90043120146994 0 0 1
633 2 7.768824579444144 14.028337380851955 17.71615705880011 0 0 0
894 2 12.043584137977298 22.61429628691259 10.494660020849302 0 0 0
2666 2 9.367822649909744 18.78973335105405 11.17255079315992 0 0 0
1274 2 8.658029022666359 8.77734363370853 25.057916417908007 0 0 -1
228 2 19.470372908845885 34.33971772191595 27.07928483021244 0 0 -1
1669 1 17.427963858225304 27.85074753042754 2.2801471889088516 0 -1 0
1063 1 23.34563012762311 29.25605400120916 18.604557903358458 0 0 -1
1671 2 16.466799210832537 28.020965305701882 2.4529393365956897 0 -1 0
2430 2 9.702347326833369 18.464927399279418 6.2735561658630346 0 0 1
833 2 16.295399464157263 25.772090824299063 26.57279050172528 0 0 -1
846 2 15.556292967771963 19.09403259162498 24.153217329415476 0 0 -1
359 2 17.431132413290523 23.44750136657849 23.268281501026294 0 0 0
586 1 4.648288277646381 16.171222504719157 2.660561851063699 0 0 0
232 1 2.005526528527567 10.557536028226627 1.2172946378878369 0 -1 1
2471 2 17.316314976593475 7.432594515066973 19.73761702516301 0 1 0
1112 2 11.059837061851141 21.137542168243964 12.188734971916318 0 0 0
887 2 15.651533623508158 25.883296882918856 18.33149816795779 0 1 -1
2465 2 14.442222803473413 18.929414750900765 7.161532687793245 0 1 0
54 2 16.877794836455923 27.988256132870163 9.678099568655263 0 -1 0
1547 2 12.098792264889642 16.508808973745378 25.895796478813086 0 1 0
223 1 2.733553640088801 6.99104090496003 3.441392519218101 0 0 0
1917 2 19.191432442682242 25.789032107949886 14.449470501406779 0 0 0
2331 2 8.352044204123192 24.44094094681518 7.196551576214965 0 0 0
1790 2 2.41384254799767 5.406535034999104 3.526112122828786 0 0 1
1687 1 9.874321616316294 7.861062422720358 10.497103934937837 0 0 0
986 2 15.414789868385835 11.62091345788387 25.679021753415068 0 0 0
1706 2 12.973164197366863 15.75540624527254 20.050279032904786 0 0 -1
1657 1 16.227157326357034 31.406274130036863 15.61870501381365 0 -1 0
1374 2 26.171345491250744 24.657711814990364 24.516983178316583 0 0 -1
1688 2 10.610971063845536 7.300305524101746 10.843585018232092 0 0 0
1652 2 17.032179919905243 20.498645406655573 23.414061096857967 0 0 0
1610 2 19.996798463375598 26.29268496387005 26.117586718759128 0 -1 -1
922 1 21.269913445919826 17.917539118000935 16.38539194773159 0 0 0
6024 2 14.235496674154266 29.483951226052664 17.664568954785626 1 0 0
845 2 14.446054429323226 18.048841932947347 24.311660513608498 0 0 -1
1563 2 11.409382124765461 17.11442034700363 18.795019298029928 0 0 0
908 2 22.93805567902339 25.88942589374943 20.063580659000174 0 0 -1
893 2 12.053602348552918 23.622725014461487 9.242563954468373 0 0 0
4433 2 7.046505452212727 17.03851424327768 12.705062593564813 1 0 0
1544 2 7.002789402234902 9.686362014467509 16.998890581765853 0 0 0
1590 2 19.036233932652824 30.73472608903792 24.535848726283707 0 -1 0
2395 1 2.2967999921779683 2.315229344394038 8.79524077747799 0 1 0
1585 1 9.38578575251238 13.925049419708431 16.776651576697425 0 0 0
2414 2 9.26297251118984 15.837248262971155 12.830995706338541 0 0 1
249 2 11.301812881671008 29.409277804945933 6.256246913398858 0 -1 0
2441 2 18.75372558421779 15.671107909484281 7.657996970822508 0 0 1
847 1 14.517408103125181 21.441099153625743 13.021011396350964 0 0 -1
1562 2 10.491141548974692 17.297934645098334 17.520337940316686 0 0 0
1015 1 10.577249036663556 4.416041440696883 16.41645420317288 0 1 -1
1089 2 15.399015764725984 30.301147762402323 20.94697531967686 0 0 -1
1664 2 9.886496966464748 16.619839961937615 15.126611349433144 0 0 0
2409 2 6.695572150623685 21.503888230127316 4.713018440427841 0 0 0
1677 2 10.548054183166709 19.004788667511914 18.309750660419176 0 0 0
1537 1 10.756847077053315 19.67585993327649 14.783606950487654 0 0 0
4392 2 7.86509478867542 18.679937195773295 9.193760054335069 1 0 0
2440 1 19.432277663056084 15.829270025834914 6.962904007041089 0 0 1
98 2 3.0460951565163024 8.396261250462317 7.697287009471083 0 0 0
204 2 8.546329701079301 10.437621644573147 18.42996302620925 0 1 0
369 2 12.40388996398821 13.660325019532841 16.833169025260755 0 0 -1
1065 2 24.11332774271883 29.266123542885627 19.17402794407827 0 0 -1
1130 2 17.15261229625442 15.651673584925378 24.04854283992128 0 0 -1
2355 2 24.83346292881975 21.598347174134044 19.079707846216273 0 0 0
962 2 22.98177675604238 26.843996924428396 24.647999227414495 0 0 -1
888 2 14.377403485903109 26.256239300925902 17.46719544455197 0 1 -1
868 1 5.644083573040576 10.890255588760247 7.690261017644261 0 0 0
2495 2 23.147842547097714 23.19823520535775 26.071301621768963 0 0 0
626 2 7.6736572110173915 9.837820148808254 0.22911419061961633 0 0 0
873 2 14.81935264996699 18.99802629108356 19.75414294553767 0 0 0
2405 2 12.988171171184241 21.842094467045545 17.854959824610386 0 0 0
2311 1 4.47323290112349 11.255959261014215 2.058019442398678 0 1 0
1515 2 5.118103490619201 14.083247244715661 0.06529232866191761 0 0 0
1896 2 8.433803221433202 15.411643622694456 3.3836806038686262 0 0 1
1546 1 12.68824620099993 15.96047479883572 26.415037252681262 0 1 0
984 2 15.37716289972288 12.917462338186448 21.529244650681083 0 1 -1
2794 1 20.497713396977197 21.98542424750856 6.374183051116747 0 0 1
909 2 21.44264164410335 26.196512445340144 19.550347571509985 0 0 -1
876 2 9.576865620064122 24.85593164322603 3.6220558781118033 0 0 0
2354 2 24.425742587312694 22.305405550051713 17.6430661742081 0 0 0
956 2 16.533293824940678 17.67375570759711 10.834751603063369 0 0 0
70 1 6.466212591518036 15.798984454749368 6.451037349234396 0 0 0
1273 1 9.531385421439985 9.306421798169964 25.120086716051507 0 0 -1
1132 1 9.655433705587637 3.325164825492095 10.566992647054656 0 1 0
1780 1 10.749037381195976 12.306399430852993 8.57097974044252 0 0 0
113 2 14.098982453401227 27.42868689847232 21.48312585752461 0 -1 0
1514 2 14.63284800430424 22.55112018675215 26.588305132540647 0 0 -1
364 1 17.981651234555546 15.702217529454348 9.218528402406442 0 -1 0
1543 1 6.505198744672438 9.78803509096878 16.151259597185614 0 0 0
961 1 22.34133297282976 26.9610649897943 23.92036145387493 0 0 -1
1715 2 5.931028074187474 6.981493482377518 19.82567754253514 0 0 0
489 2 16.608993891990288 22.67947692449959 21.197327043442208 0 0 -1
2316 2 17.08281710126334 24.64433080357874 10.368831495104393 0 0 1
300 2 8.809739395924598 20.267889084111008 8.566461868431858 0 0 0
818 2 8.215453536085935 6.28857277291616 16.673097658044544 0 1 -1
775 1 1.9443294564420128 2.8352983051482443 5.698275455335737 0 1 0
874 1 8.822114078706473 24.297353071997257 4.015395813184835 0 0 0
3736 1 12.859353268417191 30.626547415019044 11.599248511724822 1 -1 0
1106 2 4.902204256504919 12.751344365581275 3.1553084690841464 0 0 0
299 2 10.16537399621907 19.6471345571816 9.000126462736675 0 0 0
77 2 21.114259526332702 30.160909272283252 27.080140119732587 0 -1 -1
2360 2 8.260019097763308 16.609019593048217 16.78096617301743 0 0 0
1877 2 21.444268786589273 31.899745401979477 20.0719939259751 0 -1 0
219 2 4.4728158464612 1.184570401892182 2.2709698555753675 0 0 0
1675 1 10.380176438351718 20.03494790438324 18.312071616483088 0 0 0
1789 1 2.1079398054729035 4.454700629087116 3.460316791198831 0 0 1
1016 2 10.235257889114717 5.228927405811757 16.009214579269877 0 1 -1
2283 2 11.874892557412245 27.29745153614121 6.819145757862076 0 -1 0
1859 2 10.421064521506175 17.79471051324037 21.55898439921274 0 0 0
1862 2 3.1815995101740944 11.573537217474792 5.533559443297764 0 0 0
2532 2 13.035696104194784 20.705716131820655 21.09243872705278 0 0 0
869 2 5.813521629292841 11.721513954715125 7.167253803552459 0 0 0
1513 1 4.476687626621227 14.835352730275732 0.22118319214637064 0 0 0
1078 1 20.93792662269448 21.81236423590723 14.304913765270493 0 0 0
963 2 21.493324810007575 27.056110463758287 24.381057757784912 0 0 -1
945 2 6.63685829435073 20.309189481124218 6.523872571041844 0 1 0
2353 1 24.555441599424654 22.459967907205634 18.610531244800303 0 0 0
514 1 13.720826863943955 1.358192206822626 2.2001306637570544 0 0 0
417 2 16.61293841015558 18.58962636418963 21.005126546712326 0 0 0
985 1 15.534197211183901 12.561047246177173 25.684961589722853 0 0 0
1884 2 13.618354244462239 19.922793680958414 13.436239926525817 0 0 0
76 1 21.56164516049885 30.912669109360642 26.60481965344418 0 -1 -1
1538 2 11.657006548978444 19.474213651742218 14.588203325095208 0 0 0
1707 2 13.552443774186823 16.723956478645235 19.06469944822324 0 0 -1
1020 2 16.01123077985446 24.880651909459 5.978152952483815 0 0 0
612 2 6.582747742689503 3.4818492266411334 12.216756824005468 0 1 0
2327 2 29.067651805606882 27.81054794882561 24.657010842915906 0 0 0
1079 2 21.52911547024761 21.04091879754259 14.222530918528749 0 0 0
850 1 5.067328590316475 11.302834679434733 12.769505383108994 0 1 0
1704 2 7.692953976444781 12.490675659396345 19.96350327447962 0 0 0
1915 1 18.822697190451553 25.91648587661279 15.369510372885149 0 0 0
995 2 2.822534080622206 14.650066644960141 0.8803354117739253 0 1 0
2315 2 17.159930964640658 23.488070244299777 11.332009971413859 0 0 1
900 2 9.779847540979077 22.208832523606947 9.868972721195814 0 0 0
983 2 15.596198011620938 13.518810560435437 22.930472593204215 0 1 -1
923 2 20.719577579380157 18.57672962219096 16.908871609534543 0 0 0
2572 1 16.194595877058607 25.10508418094682 14.788979925756193 0 0 0
57 2 13.299556464173577 29.746927026820686 15.816090236363927 0 -1 0
156 2 16.129928239450365 29.798614750489666 11.02698055037575 0 -1 0
747 2 21.96738566139879 23.121966603773156 8.421576649454284 0 -1 0
1616 2 17.38014665455866 21.962045739266166 14.19160342259026 0 -1 0
1050 2 11.103343050340253 21.712561672222037 5.973331246653225 0 0 0
1081 1 20.887189823881254 10.12160419493281 24.978074423370042 0 0 -1
1594 1 19.918020643695012 18.66228401294705 20.45550501820468 0 0 0
2445 2 9.043047231556386 13.70237012015974 13.72961169067416 0 1 0
1603 1 13.923989274845017 21.599809360051566 24.341620858207772 0 0 0
1150 1 22.929907863828415 19.800728620076473 14.742384780087278 0 0 0
1841 2 9.218255770921129 7.355103727318972 1.4755375868738672 0 0 1
313 1 17.13705760610825 18.959939224469984 16.443496630806564 0 0 -1
1118 2 17.623648048094083 26.366137032646865 22.086610896896495 0 0 -1
1872 2 19.403578251144882 23.427370009372087 17.350877302443916 0 0 0
2613 2 21.0980196781297 19.825830062786814 9.931543042330997 0 0 1
1133 2 9.695425776555968 3.0910735018036144 11.525589771555817 0 1 0
2478 2 25.83165270770676 17.11516687738762 27.07487890353613 0 0 0
2556 2 23.439774263667303 20.287486709361662 23.831229088456542 0 0 0
2548 1 9.81067546982636 1.7505850526576865 5.743735682308568 0 1 1
1870 1 18.671312712490067 24.062801993957912 17.291394152367246 0 0 0
5997 2 9.931785958728575 19.683684118080503 13.414056438195592 1 0 0
754 1 13.884630643806975 26.44648509653642 15.691060243008563 0 0 0
1736 2 10.196484739640361 15.672180982295531 5.343566273942194 0 0 0
376 1 20.59187507950433 23.361188656317825 11.489016340296613 0 -1 0
1109 2 8.097398978802055 7.703975025506348 15.008422845310832 0 0 0
372 2 11.866878553811492 14.433985697536423 21.472101650983543 0 0 0
331 1 13.565562470633093 31.513599356359617 15.329844266654172 0 0 0
2555 2 22.27711149100012 19.177741200872678 24.053590800595416 0 0 0
374 2 13.65081371843037 9.556786001285765 25.93237357053881 0 0 -1
1801 1 16.988379010446923 14.499064059330493 12.366062855169378 0 -1 0
442 1 6.2363215208394776 4.110819774472309 2.5122575142072803 0 0 0
2601 2 19.601584743706166 25.57209809461499 7.0242628102693185 0 0 0
2600 2 20.38821645502306 24.757915896979565 8.206228052217597 0 0 0
188 2 13.635545177413555 24.084115106679388 10.894373290152364 0 0 0
2444 2 10.215250250638945 12.883630893722197 14.03740492486389 0 1 0
2387 2 10.48885129228302 26.612448177029904 10.637865037065733 0 0 0
2642 2 7.7644990016938875 10.5582192540723 11.312554475613416 0 0 1
2307 2 15.078839194475911 27.701081200265907 5.660839566742241 0 -1 0
1119 2 18.192849661005226 27.28655821051571 23.28235184581492 0 0 -1
2396 2 2.8008249874579425 3.1760355443702046 8.685625629975744 0 1 0
1114 1 3.0695636342038277 6.213922266021231 9.974321715941185 0 1 0
269 2 21.419496912221835 22.671999944415518 17.633517118407298 0 -1 -1
2306 2 15.964270598191096 28.011378175501193 6.95284953301394 0 -1 0
198 2 19.41118653047987 26.16563567914791 12.102104908873352 0 -1 0
2398 1 17.34584560757233 32.02698644126055 26.959774671542768 0 0 -1
2468 2 11.743549061215617 15.805609876075682 2.1256296955096166 0 0 1
2570 2 19.785562961064425 19.310560257690703 6.170808143246503 0 0 0
776 2 2.8941721730322882 2.6257003047848633 5.970325249665405 0 1 0
434 2 15.925145586275903 10.09579004448377 14.279474470984212 0 0 -1
1087 1 14.961276426116253 30.863906953605742 21.597999920964345 0 0 -1
1103 2 13.480486126061347 15.976195100575309 22.239262222951133 0 1 -1
2604 2 20.06975785879737 17.98114298670108 24.306437181502638 0 1 0
2453 2 14.816515949860761 28.10556199964224 25.41978831228159 0 0 0
1134 2 9.10274925050793 4.147358388547844 10.608958191865986 0 1 0
2644 1 11.739404531959515 8.12961812909745 20.440717098810392 0 0 0
336 2 10.898514992427788 22.43537813261863 18.260935371058782 0 0 0
4434 2 6.535287058233414 16.466512007975055 11.336703910115862 1 0 0
1735 1 10.421542765650315 15.26841795177827 6.233515879656244 0 0 0
2646 2 12.217950036930961 7.369774394938437 20.846120581073247 0 0 0
2413 1 9.891315668785513 15.58737504049298 13.509204537667356 0 0 1
895 1 17.56104658543196 30.6209780605724 20.283545233746143 0 0 -1
2603 2 18.71830191617681 17.32684898553477 23.543395085852694 0 1 0
2554 1 22.652437959907832 19.882665616809373 23.40927133573545 0 0 0
1864 1 7.183377267060275 5.121319696564389 17.489727770039437 0 0 0
2305 1 15.791683234785125 28.33799226444351 6.035037738090427 0 -1 0
443 2 7.200184005536356 4.093334381790684 2.2834104101893917 0 0 0
2335 1 6.659446602831566 8.256787319812041 20.60264367793847 0 1 0
2375 2 11.682207922279776 25.180589158305928 3.5280876121342017 0 0 1
898 1 9.401105681549598 23.01460892290669 10.227683415156644 0 0 0
2641 1 7.070374280562494 11.005714204974021 10.781489924961216 0 0 1
897 2 18.07070912669322 31.372530242645215 19.9677348853227 0 0 -1
318 2 19.559379653536052 25.545037208036117 22.473979190532518 0 -1 -1
725 2 5.417058194141641 3.862678654392188 5.382728966744553 0 0 1
2456 2 13.390282959444235 26.784804487008177 5.4875091169685 0 0 1
1672 1 17.028023132204613 28.579839918473382 11.143523378748124 0 -1 0
1617 2 16.660398206539714 22.3356239049106 15.534535212863513 0 -1 0
1117 1 18.44780157773689 26.849693653536516 22.402305454959034 0 0 -1
1737 2 9.677483630187819 15.542357894979322 6.758481416034361 0 0 0
1909 1 15.78213362139104 12.427305186849878 16.636743080290486 0 0 0
1682 2 4.868735309890985 9.604380873929385 9.712059980681088 0 0 0
368 2 12.284724509435506 14.794277593052675 17.92772971030439 0 0 -1
197 2 18.377411539180798 25.06741036377471 12.220283808437925 0 -1 0
759 2 7.646323050486592 7.025417875444619 5.752703040039327 0 0 0
1865 2 17.736323719235497 32.72662496532984 18.241675054678577 0 -1 0
444 2 6.118244040940115 4.373214375461497 3.5028985330250264 0 0 0
2513 2 26.86115584072386 32.39732078067401 20.79219381498999 0 0 0
104 2 6.547793931122725 11.378900115565246 13.757907044567592 0 0 0
1681 1 5.693178466635518 9.042742804834882 9.921040919759617 0 0 0
2467 1 10.862345213834903 15.769569820602369 1.714517478984362 0 0 1
1596 2 19.192517726058416 18.26419744376044 20.99501942301146 0 0 0
1621 1 13.023240663341262 12.103805614854428 16.601146492688024 0 0 -1
1622 2 14.012287568254639 12.215885245228945 16.55335476052256 0 0 -1
1151 2 23.54196683643196 19.241325292893695 14.229976402642947 0 0 0
1691 2 7.882509128618662 19.529063988698283 1.3890522534962129 0 -1 1
316 1 19.947755345605522 24.626208384360716 22.276165532524118 0 -1 -1
2612 2 20.254517822587083 18.930448734416036 8.932230832229212 0 0 1
2491 1 11.1871204502045 18.36258759311516 0.9356765741456626 0 0 1
5 2 13.032170893673758 4.480849209468817 3.1154153929811 0 -1 1
86 2 4.231859698158773 10.393680403378339 3.828109779784877 0 1 -1
1876 1 21.68006279802459 32.79006818129038 20.402801228084904 0 -1 0
2563 1 10.082939214927062 3.667817198848399 3.9751723060448034 0 1 0
955 1 16.474295270750797 18.114833191875597 9.951599908408532 0 0 0
216 2 15.368911743840393 20.90715809358453 11.61970259935002 0 0 0
819 2 9.495681102928895 7.06217683858989 17.053225170071993 0 1 -1
373 1 14.554590439349525 9.66381447911999 26.299958603520775 0 0 -1
1049 2 10.757600991335188 21.177438652223355 7.511240726384966 0 0 0
2512 1 27.710825831550082 32.51130515181365 21.255739364525954 0 0 0
214 1 15.76592931859819 20.582556809410065 10.788251020860734 0 0 0
1900 1 12.300958882113601 9.826277810421802 24.876647794694204 0 0 0
375 2 4.191439946136367 2.6067065722240006 0.1189315898513019 0 0 0
1997 2 23.837716958674065 15.463665808474408 17.791688646989236 0 -1 0
2439 2 11.600881539166174 18.518651182544865 7.017744751159742 0 1 0
189 2 15.097402605112489 24.640191264676123 11.239704794555944 0 0 0
844 1 15.231941870754824 18.39027505358048 24.755121845361465 0 0 -1
187 1 14.179084051689411 24.68374120101547 11.504620177365112 0 0 0
1611 2 19.409464609491835 27.380361678814396 25.2992776903157 0 -1 -1
314 2 16.31799423564688 19.466657502617952 16.579102310372477 0 0 -1
2602 1 19.664985633355197 17.718360639754476 23.464275383205596 0 1 0
675 2 19.730739861818087 25.165343811593868 4.774914055295609 0 -1 0
1560 2 23.686779873808074 34.52221274007719 27.133130056983656 0 0 0
1668 2 6.036357143575967 14.036722889282991 6.4489545813362135 0 0 1
271 1 13.562424998253142 10.21387856295093 20.345779048381353 0 0 0
2469 2 10.195176095517056 16.020829675593625 2.355693145021361 0 0 1
756 2 13.102144012300755 25.91021311123218 15.529257487846179 0 0 0
385 1 19.389429395853234 14.334104461781267 26.535496392028836 0 0 -1
154 1 15.663758488126565 30.740134693408283 11.066641765572896 0 -1 0
1762 1 5.495730006609619 13.92632445743986 9.375696785743665 0 0 0
1152 2 22.422122537926228 19.1482785181373 15.297926033933392 0 0 0
625 1 18.412125282136405 17.401211445731814 26.638010839931745 0 0 -1
1878 2 22.250582002389386 32.97809067225627 19.65433058804549 0 -1 0
2437 1 11.489357676585922 18.906008743296045 6.128956914724425 0 1 0
1615 1 16.615872443405753 22.487945548461898 14.548065012433328 0 -1 0
920 2 21.802373354713048 16.42346355964828 20.815011675060195 0 0 -1
284 2 21.207998865039855 30.66509589571422 23.518242329906524 0 0 -1
871 1 14.033758175125968 18.701270061978704 19.243723333790907 0 0 0
820 1 6.360359144549977 20.535319523923736 1.5058449842994415 0 0 0
245 2 2.6441786989431257 5.901661036292546 6.4299881162414785 0 0 0
117 2 20.908188475305415 23.157290817328217 25.692315785239913 0 0 -1
1163 2 26.409390055927496 29.015959701655117 11.107920555739026 0 0 0
2492 2 11.712520661008462 18.43632969262475 1.76532117343521 0 0 1
1085 2 12.842953927100002 21.93919070289511 2.2543208611695142 0 0 0
848 2 13.84628502274174 22.086859438331548 12.806356912409127 0 0 -1
273 2 12.946695941789542 9.432971281594632 20.3674959539985 0 0 0
1084 1 12.075286953261045 21.359576022183703 2.4348892985883746 0 0 0
1910 2 16.07799158205625 11.607566323194922 16.081411925203213 0 0 0
1720 1 25.889885210982015 16.706599313532664 22.566146434315236 0 0 0
360 2 18.409622296975392 22.313524130592945 23.907723958981908 0 0 0
196 1 19.200692833799398 25.39037802963411 12.653957931922498 0 -1 0
777 2 1.8030087145735454 3.6279481247925514 6.237903424466867 0 1 0
308 2 25.305448559860974 34.77428677513604 26.04391028128086 0 0 -1
309 2 24.01752110726542 34.58299995375928 25.1569491975258 0 0 -1
3003 2 6.583710950672562 5.561409577429652 12.726988574654492 0 1 0
1809 2 13.486087584622076 16.069427544189175 12.618967509156036 0 0 0
880 1 19.786302346241 22.69186157100006 20.370950520791947 0 0 0
315 2 17.928166624210178 19.28753424779413 16.92838100155387 0 0 -1
283 1 20.66520269672661 31.293887317522017 24.074206151700437 0 0 -1
386 2 20.27086703989903 14.864578953129463 26.380418164330894 0 0 -1
1606 1 15.706187039564401 7.332213872692164 7.232824303681742 0 0 0
726 2 6.735519646470704 4.55802715579716 5.429345192566709 0 0 1
4432 1 7.20971097852154 16.3597791577851 12.038053187484367 1 0 0
84 2 17.241008449751305 21.7392443086781 18.936285955415045 0 0 -1
387 2 19.67438743257515 13.372093739841327 26.67170827336407 0 0 -1
1665 2 9.966001260858796 18.08689394523116 15.567099667652945 0 0 0
1559 2 13.758481485407472 27.886994390570802 1.3832861380534525 0 0 1
1683 2 5.646935927757256 8.806693521505585 10.830540712532269 0 0 0
1558 1 12.98147433961515 27.737284126020985 0.7802247044239531 0 0 1
684 2 17.462526488398044 9.893628309596448 10.461262999667918 0 0 0
2339 2 10.289192702733068 3.663527656451919 13.849012112360427 0 1 0
465 2 19.180155297865703 7.18358522005667 12.647976022401586 0 1 -1
285 2 20.960834793962242 31.106065341313517 24.982441104308144 0 0 -1
2549 2 9.391185703840552 1.8345074414443863 6.624410490695892 0 1 1
974 2 13.316400352824889 27.568995982165536 9.731457431968197 0 0 0
1802 2 16.787283063853558 14.351442557665829 11.452862691920377 0 -1 0
901 1 20.16102793008018 17.967947012341053 12.109676931944675 0 0 -1
902 2 19.41503152387864 17.90390958074976 12.78291291565661 0 0 -1
1856 2 -0.00716099758903832 4.784632457441535 0.15489577896470272 0 1 0
2493 2 10.931216337590367 17.436518728144193 1.0755002241344789 0 0 1
171 2 10.37371773293411 15.364116871717593 20.953875198374053 0 0 -1
2645 2 11.065536531760905 8.38346146907843 21.08814683533785 0 0 0
1600 1 15.973381844440397 16.28551649410716 17.086319002673868 0 0 0
822 2 6.761433843212626 21.351893489148473 1.7920813254328332 0 0 0
367 1 11.928913974444232 14.50271857951541 17.107677405728932 0 0 -1
1583 2 8.644689532142312 15.191848581780446 9.09737802195273 0 0 1
317 2 19.508987744452366 24.09960894635857 22.99167627274982 0 -1 -1
2571 2 18.38644037990114 19.624849110349448 6.32796172422955 0 0 0
3001 1 6.481667435437617 6.474689948856817 12.416723982442678 0 1 0
115 1 21.69455583525497 22.697722308690874 25.26679196084788 0 0 -1
116 2 21.80463070408697 23.19080933544155 24.42302473137953 0 0 -1
817 1 8.998473471672188 6.701727100393352 16.23752053146122 0 1 -1
724 1 5.828525671587234 4.640760068099208 5.017944646640649 0 0 1
2415 2 10.700699545774839 15.396622396020955 12.978194378727872 0 0 1
1911 2 16.324159820648006 12.461106217686213 17.49967030557272 0 0 0
1048 1 11.470026319365484 21.533775353876457 6.895993323789038 0 0 0
1066 1 7.964237317016523 6.256964531350813 22.334036400186946 0 2 -1
1116 2 3.7665917266147444 5.666729663932078 9.515683937662239 0 1 0
1086 2 12.482038575618297 20.524973601764888 2.784094324305305 0 0 0
627 2 18.404134883042815 16.730115841849283 25.94436708218123 0 0 -1
1083 2 20.66543230672368 10.612015332613947 25.790656717452613 0 0 -1
2514 2 27.421364246326206 32.87186125653842 22.16335235360534 0 0 0
2625 2 13.307031885675933 18.048885224695773 22.63011459528248 0 0 0
2565 2 9.849372074692923 4.575968237947204 4.278764799379192 0 1 0
2550 2 9.696067435679165 2.550652670931847 5.219883098713331 0 1 1
680 2 21.910746922402907 27.7057181239483 4.387942345766497 0 -1 0
1673 2 16.61811602244359 28.242233311292164 11.9947341629373 0 -1 0
1803 2 16.154275284853316 14.226143444803489 12.794512355247358 0 -1 0
2338 1 19.67032667596622 31.356970603169433 13.399859190238708 0 0 0
2438 2 11.69819394505775 19.855383808747664 6.3689190356708965 0 1 0
1605 2 13.151655679097832 20.91211306397968 24.289227237384218 0 0 0
2569 1 19.149155349474597 19.95399880752051 5.79657535987172 0 0 0
1235 2 22.062766803029234 30.153219151001274 19.24595204351511 0 0 0
788 2 15.466724514298608 13.339397558800693 14.89631961833599 0 0 0
155 2 14.776527358601182 30.667229926056468 11.416094086409782 0 -1 0
1442 2 20.250430354725065 14.086499589479812 6.892024907477021 0 0 0
2681 2 18.922565156872288 23.91782927281128 27.002912318565915 0 0 0
1234 1 21.13523438005013 30.396345609582266 19.488920889677598 0 0 0
146 2 14.061836215836738 28.572282857896017 19.548948218518113 0 -1 -1
1572 2 11.354560838267098 9.586205349642897 15.489419895110691 0 0 1
2682 2 18.795787689626575 24.08021645016026 25.41809173484321 0 0 0
1602 2 16.55515410916571 15.950723869464802 16.34568929044449 0 0 0
2680 1 19.428683540981215 24.13681468558511 26.158004598766496 0 0 0
1236 2 20.92397155670201 29.80132846826411 20.264041304409993 0 0 0
1791 2 2.2675616804399734 4.0101003377643964 4.35138599781895 0 0 1
272 2 13.716919950903318 10.426121158000417 21.33199318274566 0 0 0
1582 1 8.40509272071645 15.873016805643655 8.43177524982841 0 0 1
2574 2 17.093699100020306 25.46715434832806 14.929545457661352 0 0 0
811 1 19.93819747186889 20.235210373314686 0.5992932032248831 0 1 0
203 2 7.5507847616044605 9.622111289877935 19.34771862416156 0 1 0
1886 2 15.126739991304433 6.060708556629501 10.965238965936269 0 0 0
1907 2 7.3492450459513305 8.653529609231093 2.004273209967467 0 0 1
128 2 5.32331512238074 3.268799568316177 9.592433582650107 0 1 0
1890 2 13.354145360154128 11.837291364024107 10.890293644693521 0 0 0
1840 1 8.37857568668301 7.212626740925003 2.0621688171085513 0 0 1