LAMMPS data file via write_data, version 15 Apr 2020, timestep = 0

1944 atoms
2 atom types

-5.5635536004335506e-01 4.0538460360040951e+01 xlo xhi
0.0000000000000000e+00 1.9777661544154846e+01 ylo yhi
0.0000000000000000e+00 2.0469986878410914e+01 zlo zhi
-1.2482292235908687e-02 -5.2678040448341790e-03 1.4760873755918169e-02 xy xz yz

Masses

1 16
2 2

Atoms # atomic

491 2 3.1435851604750988e+00 4.3711226864690831e+00 6.2401289059935543e+00 0 1 0
926 2 1.1655178251011602e+01 7.8483787760156423e+00 7.1655266632493744e+00 0 0 0
90 2 9.5715504604697035e+00 1.1172270615922201e+01 2.7309708394826058e+00 0 0 0
905 2 1.6998261674448553e+01 2.9784278856125384e+00 3.8122956004388286e+00 0 0 0
77 2 1.9500589173989816e+01 6.8400592033246106e+00 1.1899521660753127e+00 0 0 0
668 2 -3.8144085445858933e-01 1.2544976919129713e+01 3.5033068023184559e+00 0 0 0
449 2 1.6975846727948714e+01 1.9084421314872586e+01 7.4725236801710855e+00 0 0 0
518 2 1.3209675178551484e+01 1.0695120119958593e+01 5.4625154636394839e+00 0 0 0
1573 1 6.9780355038471029e+00 1.1274624091510274e+01 1.0785037144033833e+00 0 0 2
306 2 7.3011137859564759e+00 7.2434355089000646e-01 5.6779882222911180e+00 0 1 1
672 2 5.8031823862091807e+00 1.5143111067921026e+01 7.9711835499684458e+00 0 -1 0
1578 2 1.9197384689335042e+01 8.5240677930899267e+00 4.8929579801571199e+00 0 0 1
505 1 1.8424910617507848e+00 2.1874059491188222e+00 7.8683519960976609e+00 0 0 0
954 2 1.7179852995687146e+01 1.5407913899471220e+01 2.4516693196552044e+00 0 0 1
481 1 1.1679552222310118e+01 1.9482082324854726e+01 3.0680604528148381e+00 0 0 0
1163 2 1.3973194680389362e+01 1.3981396070381622e+00 1.0811034413746883e+00 0 1 1
1121 2 7.0803798572533472e+00 9.4408271926496568e+00 1.2947608962195583e+00 0 0 0
958 1 1.5476343002845489e+01 3.8672316933655542e+00 7.3184577428389073e+00 0 1 0
1313 2 -1.4334321361285135e-01 4.8130927052705843e+00 2.8227157345883049e+00 0 0 1
1310 2 1.9792727582070398e+01 1.6343233213837280e+01 6.7585679870947208e+00 0 0 0
1559 2 1.7622177468470479e+01 1.6299435593809392e+01 7.0631590076020530e+00 0 0 1
261 2 4.3007136422363956e+00 5.7060928271147544e+00 9.9806008290725394e+00 0 0 -1
669 2 9.8099706682515952e-01 1.3256737984560569e+01 3.2963264987368124e+00 0 0 0
76 1 1.8542034148261834e+01 7.0844040940154969e+00 1.0483850331142939e+00 0 0 0
1536 2 7.1671156976363655e+00 7.6575158236363059e+00 6.9809273161255945e+00 0 -1 0
1782 2 8.6092496182439344e+00 9.0027985889500890e+00 8.5141401510396353e+00 0 0 0
687 2 1.3359585269427221e+00 1.8967033631001684e+01 3.1641469998077136e+00 0 0 0
1158 2 1.5664696522955875e+01 1.4878471856731871e+01 4.3525327237113496e+00 0 0 0
1760 2 1.1297231283525470e+01 9.8397329994988034e+00 1.9017147946085695e+00 0 0 1
749 2 1.5764730624320315e+01 7.3759876459968572e+00 1.0272361499017393e+00 0 0 1
1758 2 1.6130710636025729e+01 1.3209987907631644e+01 8.8990541527126812e+00 0 0 1
480 2 1.7996407236277015e+01 1.9382117366989355e+01 2.0906827036740130e+00 0 0 -1
1786 1 8.7746743821813471e+00 1.7729707123060411e+01 5.1962013068607709e+00 0 0 1
18 2 6.0880523159042221e+00 7.8324058309082023e+00 3.4653443794951113e+00 0 0 0
314 2 1.3011850594459847e+01 1.3679413982671990e+01 7.4082702859603566e+00 0 0 0
64 1 1.7154572482731524e+01 1.1937629984749236e+01 4.4641550110236174e+00 0 0 -1
50 2 9.0352466552680255e+00 9.8596768957782999e-01 8.6042895269488664e+00 0 0 0
1520 2 9.5779499296655235e+00 5.0978171755607535e+00 6.6252510002257257e+00 0 0 1
437 2 2.5526425505665915e+00 2.4138066383060126e+00 1.6882595791460127e+00 0 0 0
304 1 8.2761004920632466e+00 5.3385139176280949e-01 5.5097118083471628e+00 0 1 1
68 2 2.3309649068607428e+00 1.6020834809945029e+01 1.0061106865599621e+01 0 -1 0
718 1 4.4050730264299833e+00 1.1638702235090561e+01 7.5056435729230904e+00 0 0 -1
906 2 1.7535446212377810e+01 3.2812239486187638e+00 2.4353842113459248e+00 0 0 0
66 2 1.8139684826702069e+01 1.1955782880465730e+01 4.5151812159625715e+00 0 0 -1
713 2 2.2023893876747040e+00 1.7042225519003040e+01 7.9810942378526812e+00 0 -1 1
1354 1 2.7483857650647359e+00 1.3185634929027211e+01 2.8025227632293532e+00 0 -1 2
925 1 1.1665638614710117e+01 8.7847157856601417e+00 7.4946312571797256e+00 0 0 0
737 2 1.9373033241046247e+01 1.1874216620716478e+01 6.1164843165959324e+00 0 0 0
47 2 5.0113782120022439e+00 1.0790194483995123e+01 3.5521488352743167e+00 0 -1 0
1125 2 1.8710423527235289e+01 1.2666346651696880e+00 6.5290589136166730e+00 0 1 0
1803 2 7.4799375273347906e+00 4.8345720528190261e+00 3.0894029577697637e+00 0 1 1
725 2 1.5314205872301775e+01 1.7848108923625376e+00 5.0797281601047315e+00 0 0 0
898 1 1.0252166223842749e+00 7.9459926158172420e+00 4.0740353452923648e+00 0 0 0
726 2 1.4768709417754941e+01 2.9162174664170895e+00 4.0369408502580928e+00 0 0 0
7 1 -4.1448636567069852e-01 1.4204402061349954e+01 9.2685752220355848e+00 0 -1 0
1583 2 1.2254082614266121e+01 1.7400342884775490e+01 8.1240828827713099e+00 0 0 0
1595 2 6.4845498300633846e+00 1.6708469138224796e+01 1.9070947982381101e+00 0 0 1
49 1 9.7237928352963596e+00 1.0644898775396212e+00 7.9520018078268961e+00 0 0 0
1523 2 1.5645834661875244e+00 1.0453403587919516e+01 8.0811465008436656e+00 0 0 1
1560 2 1.6329987706750746e+01 1.5642264201741082e+01 6.8165658783444609e+00 0 0 1
443 2 1.1271974082071023e+00 6.3496424812984271e+00 5.3119938594658320e+00 0 1 0
661 1 -4.1138139233077797e-01 2.0960657277960566e+00 1.4231606638980816e+00 0 0 1
1128 2 7.6322747935953128e+00 7.6283098123770641e+00 4.7759244957333644e+00 0 1 1
1154 2 1.6696122935860224e+01 1.1025144058188760e+01 6.0070742183722601e+00 0 1 0
712 1 2.5163673546526253e+00 1.7333641998896706e+01 7.1077398573262558e+00 0 -1 1
1323 2 5.0845577579742791e+00 1.7680947669956881e+00 6.0245483378979978e+00 0 1 0
1543 1 4.3719724448140973e-01 1.3803922741216960e+01 6.8183041060066270e+00 0 0 0
1352 2 6.3236791305041145e+00 1.5760602644842159e+01 4.7579862439827867e+00 0 0 1
1303 1 6.6784860880499828e+00 1.4222569405840620e+01 4.6468372896663306e+00 0 -1 1
739 1 1.4679325562138690e+01 1.6320520222833423e+01 6.9701390209650105e-01 0 0 1
1143 2 1.8096494382702023e+01 1.1669721277809174e+01 8.5788977242007514e-01 0 0 0
1542 2 4.3516632363264360e+00 1.9499430934888753e+01 1.9305691195973449e+00 0 -1 1
281 2 7.8569632022987186e+00 1.8340635566488690e+01 6.1293171095144849e-01 0 -1 0
519 2 1.3091599327827915e+01 9.7947791744059138e+00 6.7378694196188249e+00 0 0 0
899 2 3.7894069179093104e-02 7.9220562800582215e+00 4.2546445426636499e+00 0 0 0
280 1 8.5602149269254006e+00 1.8673446408598000e+01 5.1337201428378471e-02 0 -1 0
483 2 1.1299044327010096e+01 1.9868808536824104e-01 2.2987721267327026e+00 0 1 0
72 2 6.9969845299436049e+00 1.4848215363377225e+01 8.8687981939105454e-01 0 -1 0
753 2 3.6110016108441574e+00 5.9346861786867056e+00 2.5969847815710345e+00 0 1 0
1539 2 -4.0641001688301093e-02 1.6741057199442505e+01 2.8743011182142850e+00 0 0 0
294 2 1.9768419967591221e+01 1.0779841973911248e+01 7.8336917266591160e+00 0 -1 -1
711 2 1.8733118546620922e+01 4.8597209583644219e+00 4.1812819786577364e+00 0 0 0
88 1 8.9686839547726258e+00 1.1970465751515706e+01 2.8134357696980032e+00 0 0 0
915 2 1.9053640684298969e+01 1.4902869172860067e+01 3.6672751846348799e+00 0 0 0
1307 2 6.2366842654958567e+00 5.0073648465143012e+00 9.6527614917227034e-01 0 0 1
936 2 1.4700725186436314e+01 1.1665371162506034e+01 1.5196491336702247e-01 0 1 1
2 2 4.1715628021798317e+00 1.5069645815812036e+00 2.6663392613439592e+00 0 0 1
1374 2 1.5961289488576829e+00 4.1320978928639391e+00 4.4185272311216250e+00 0 0 1
1162 1 1.3940022374919675e+01 2.2935198525712872e+00 8.0867570245948150e-01 0 1 1
1155 2 1.5471843873374041e+01 1.0457935209552177e+01 6.6457268749315608e+00 0 1 0
972 2 1.3637867224929694e+01 1.4926183675469247e+01 1.2509188664733215e+00 0 0 0
890 2 1.9548223488918568e+00 8.9255408142251689e+00 4.8349028901464033e+00 0 0 0
1322 2 5.4426492900913868e+00 2.4403690864328773e-01 5.8897993717467125e+00 0 1 1
492 2 3.2354070990156303e+00 5.0219743220663489e+00 7.6814990908439809e+00 0 1 0
223 1 7.9227349042261630e-01 5.4615204153352748e-01 3.8846382704852949e+00 0 1 0
1304 2 5.9855766478841730e+00 1.3791733866916765e+01 5.1437150329821852e+00 0 -1 1
1535 2 6.2124651325980214e+00 8.1956530890835602e+00 7.9703033694080094e+00 0 -1 0
478 1 1.8512126893169793e+01 1.9301305380212302e+01 1.2576865589532180e+00 0 0 -1
287 2 1.4904335820074810e+01 5.5845068751339513e+00 7.1394057146373608e+00 0 0 1
971 2 1.2492676553223321e+01 1.4073232987051448e+01 1.9897413439999683e+00 0 0 0
1187 2 -5.3096858856820028e-02 1.0756497565196238e+01 5.5486769238133480e+00 0 0 0
923 2 1.0290276469480665e+01 9.4924179072922694e+00 6.4118536699158977e+00 0 -1 0
1577 2 1.9274819714628752e+01 8.5194894095039135e+00 3.3810914941773071e+00 0 0 1
1312 1 1.6920650192236431e-02 4.0955654111492743e+00 3.4775854503693622e+00 0 0 1
78 2 1.8265388026857984e+01 6.6612347496794673e+00 1.9893486872057473e-01 0 0 0
1164 2 1.3116041636828129e+01 2.4652394637576567e+00 2.9749480029922015e-01 0 1 1
683 2 1.0545075845216466e+01 2.5498234095812609e+00 4.3791423002822336e+00 0 0 0
21 2 3.3411645773250653e-01 5.2936250198922155e+00 7.3118365772196245e+00 0 0 0
251 2 7.0794805214744416e+00 1.0198729790991749e+01 7.1306401465489015e+00 0 -1 0
1355 2 2.4157946098767362e+00 1.2929469831138977e+01 1.9576753448220654e+00 0 -1 2
1138 1 8.9269671992407691e+00 2.2666078375590648e+00 3.5642028030248070e+00 0 0 1
537 2 1.6507194363630589e+01 1.9442883874167038e+01 1.0210178395538394e+01 0 0 0
964 1 1.1151451443176770e+01 4.4661173597668204e+00 6.5289205397220886e+00 0 1 0
1805 2 8.9867676140417885e+00 1.8722400878704306e+01 8.5014815841683085e+00 0 0 1
253 1 3.6138113406190042e+00 9.1430089198594722e+00 1.0355559223794575e+00 0 0 0
901 1 1.9846047995922394e+01 1.7467309934271296e+00 4.8682056212505591e+00 0 1 0
453 2 4.9877814290125153e+00 1.1356698846555101e+01 9.4227308669393928e+00 0 -1 -1
1576 1 1.9627081422392493e+01 8.0693340161333253e+00 4.1514954264345318e+00 0 0 1
701 2 8.1778564873033766e+00 1.4379038649347031e+01 5.7907774475960485e+00 0 0 -1
1764 2 -4.3016485820634098e-01 6.9472165871706828e+00 1.6066086841377076e+00 0 1 0
1356 2 3.1687264163374307e+00 1.2338302657494125e+01 3.2236295789245579e+00 0 -1 2
921 2 2.0970314246593937e+00 1.6856344147936436e+01 2.8451357633565846e+00 0 0 0
1762 1 -5.5046768854598727e-01 6.0183290798047206e+00 1.4294147120496339e+00 0 1 0
1779 2 3.3462831136378379e+00 6.3897996549206781e-01 1.0143159063010176e+01 0 1 0
228 2 -4.3996183690658441e-01 1.3945458279021365e+01 1.8755487858357587e+00 0 0 0
1188 2 1.3772973123296339e+00 1.0494529012087769e+01 5.9560673132832580e+00 0 0 0
951 2 1.0591513853271682e+01 1.4361043236866418e+01 1.6482629121659549e+00 0 0 0
900 2 1.2447724115035639e+00 7.4613594187626910e+00 3.2958920690963316e+00 0 0 0
1581 2 2.0972673768359020e+00 1.5501282621372050e+01 4.6712553624129276e+00 0 -1 0
707 2 1.3400665151615465e+00 1.1489843752132964e+01 9.7969870600749756e-02 0 -1 1
1308 2 6.2095901258460113e+00 3.5790526657204027e+00 1.2687471131205761e+00 0 0 1
1618 1 1.2486482566010993e+01 3.5963738492574032e-01 5.6973775369117696e+00 0 0 0
309 2 8.8022121945919292e+00 1.5271449529267185e+01 4.0111309677402107e-01 0 0 0
1817 2 1.7910510637996047e+01 1.9019100803664202e+01 3.8559186001340771e+00 0 1 1
17 2 5.3749719961783136e+00 6.5354025170450090e+00 3.8410861606544722e+00 0 0 0
229 1 4.3141985494365320e+00 1.3467575381789365e+01 5.7041832733864792e+00 0 0 0
1804 1 9.0347488390902058e+00 1.7822136549388077e+01 8.1153264165132413e+00 0 0 1
883 1 1.1343354139792998e+01 3.1576038703272400e+00 8.9267418414702835e+00 0 0 0
895 1 6.0364777926623123e+00 5.8313697556988036e+00 7.3322414956546131e+00 0 0 0
1777 1 2.9835623240525866e+00 1.5208319102651531e+00 9.8726000818473310e+00 0 1 0
270 2 1.7384650224537229e+01 9.9158515227099020e+00 2.0491606941202067e+00 0 0 0
506 2 2.4265073404142217e+00 1.9102028788683723e+00 8.5958240644495323e+00 0 0 0
227 2 -9.1082218669372106e-02 1.3205351962969818e+01 6.1061272261337096e-01 0 0 0
924 2 9.3628218470471616e+00 1.0770527705170727e+01 6.2676669114759509e+00 0 -1 0
966 2 1.1305612171126812e+01 3.8648615213043498e+00 5.7809604371676047e+00 0 1 0
1594 1 6.5184782816245646e+00 1.7531164219184365e+01 2.4404223404368102e+00 0 0 1
887 2 1.1647392846756730e+01 1.1330475650266555e+01 9.7749267164438400e+00 0 0 0
684 2 1.1736072600489099e+01 1.8157198239501595e+00 5.2318012624341534e+00 0 0 0
1086 2 1.7040493026474501e-01 7.6771083198480428e+00 7.5834390418770594e+00 0 0 0
874 1 8.1641086397909408e+00 1.2228527707531955e+01 1.0156414696249922e+01 0 0 0
748 1 1.5113107650821821e+01 7.7483316784071654e+00 4.6260753330648613e-01 0 0 1
714 2 2.1074599811931827e+00 1.8172988144581087e+01 6.8244419174450668e+00 0 0 1
301 1 1.8678468037524617e+01 6.4946789182118652e+00 8.2768635607148120e+00 0 0 -1
1109 2 5.5679483567978165e+00 1.7577111111017432e+00 1.0761055983993766e+00 0 1 1
1161 2 1.4568698841985988e+01 2.8924201651226413e+00 8.6237350599724607e+00 0 1 0
9 2 -9.1463934563770111e-02 1.4161962099542306e+01 8.2970454849618314e+00 0 -1 0
67 1 1.9180119976804293e+00 1.6858412232706236e+01 9.8538102697743639e+00 0 -1 0
953 2 1.7648912838291192e+01 1.3957787036846376e+01 1.8157734882776286e+00 0 0 1
442 1 1.3509304205423609e+00 6.1648085262687475e+00 6.2207769770261221e+00 0 1 0
1580 2 2.5570424679303745e+00 1.6003891019726218e+01 6.1878269088189928e+00 0 -1 0
467 2 1.5368701559493958e+01 3.3499532616935657e+00 9.7968476220351619e-01 0 1 0
250 1 6.9633641195560294e+00 1.1110164396203734e+01 6.8105093737185145e+00 0 -1 0
939 2 2.1550262265173044e+00 6.4355726028161362e+00 1.1051315691465016e+00 0 0 0
1100 2 4.5520989708173101e+00 7.4771595205763903e+00 5.7313506488180082e+00 0 0 0
1767 2 1.5500122900956995e+01 1.6293407412094879e+01 2.2202761614980884e+00 0 0 1
1794 2 9.0826870361386174e+00 4.2532410742532285e+00 2.1715032908426660e-01 0 0 1
94 1 4.2919465056740016e+00 8.6555534458564019e+00 8.6460822821470433e+00 0 0 0
1761 2 1.0120639949315814e+01 9.1261013233356074e+00 2.5891137921056728e+00 1 0 1
914 2 1.9411746514297359e+01 1.5336459731583796e+01 5.0757043889935574e+00 0 0 0
70 1 7.3353745158729833e+00 1.5729506936792319e+01 7.9321088942472850e-01 0 -1 0
1108 1 5.9390217557650837e+00 2.2465344530784095e+00 3.2947839296617332e-01 0 1 1
913 1 1.9623119686052167e+01 1.4679950985524483e+01 4.3752226834757018e+00 0 0 0
74 2 1.8802444751569176e+01 4.1286506092970550e+00 6.4805035959165282e+00 0 0 0
744 2 1.7111861759304205e+01 1.5159453756965165e+01 8.9344263213273507e+00 0 -1 0
69 2 9.5880791359180839e-01 1.6858493804218490e+01 9.8779618780687102e+00 0 -1 0
106 1 1.4041406219580837e+01 1.0314194372164126e+01 9.8458687308743595e+00 0 0 0
1814 2 1.7303562768642109e+01 6.4289508801505129e+00 2.3047832105697608e+00 0 1 1
73 1 1.8494944674977734e+01 3.8695976584328706e+00 7.3856628950837493e+00 0 0 0
1612 1 9.9142274687846506e+00 1.2465198948100467e+00 1.2686208507043155e+00 0 1 1
920 2 2.4268692340518094e+00 1.5264066987857523e+01 2.6291031782355123e+00 0 0 0
531 2 1.4602073315549825e+01 8.6826636323136750e+00 9.5272880963471120e+00 0 1 -1
1784 2 1.1923411340245886e+01 5.8262128967250355e+00 6.1241719493531539e+00 0 1 0
1754 2 4.5624421690390662e+00 1.8522047888639587e+01 9.9970197440548390e+00 0 0 0
919 1 1.7627601794720200e+00 1.5872058557770588e+01 2.9577215016817582e+00 0 0 0
526 1 1.4171393608700038e+01 8.7585572097478277e+00 3.9527069498700262e+00 0 0 0
456 2 6.7292315824086302e+00 1.6887470443481259e+01 8.9322647623364109e+00 0 0 0
1309 1 1.8985359912442572e+01 1.6619689764044104e+01 6.1505088639085885e+00 0 0 0
320 2 1.2327186519838520e+01 1.4209660059307316e+01 5.7153654584813083e+00 0 -1 1
230 2 3.5411680795147733e+00 1.4044298522583183e+01 5.6080399855659584e+00 0 0 0
1574 2 7.8359515242154458e+00 1.1391731438908668e+01 1.5842693013564726e+00 0 0 1
307 1 9.6989467796464286e+00 1.4915805489208861e+01 1.5395842029743820e-01 0 0 0
1815 2 1.6179674295783720e+01 6.1273398065568623e+00 3.4609984130743841e+00 0 1 1
257 2 4.9446701908622650e+00 1.3222450209096476e+01 2.2364209562575130e+00 0 0 1
1120 1 6.9211870440730827e+00 8.8435726005829007e+00 2.0273621090958747e+00 0 0 0
690 2 1.5628155188591172e+01 7.8403915020504398e+00 4.4249221833980892e+00 0 0 0
469 1 1.3005392839944498e+01 1.6173018715836825e+01 9.3727405456461952e+00 0 0 -1
1160 2 1.4062113448196554e+01 1.4874443856984072e+00 9.1603813888782426e+00 0 1 0
897 2 5.3576336217586444e+00 5.2146297332822540e+00 7.1132405336142437e+00 1 0 0
893 2 4.1895688488214287e+00 1.8169094792247542e+01 6.7973821431802763e+00 0 -1 0
872 2 8.3774317804740619e+00 6.1489784929872968e+00 6.4198378445302262e-01 0 0 0
889 1 2.5725304311204056e+00 9.5023698087858630e+00 5.3588267680787824e+00 0 0 0
16 1 5.8604532047336724e+00 7.2612899572359044e+00 4.2545816519573201e+00 0 0 0
667 1 1.6240745439061621e-02 1.3417055876007161e+01 3.3712964629043065e+00 0 0 0
268 1 1.8286848493487831e+01 9.8339301754639461e+00 1.6083581531680839e+00 0 0 0
873 2 9.5292965187023881e+00 6.0981472354639079e+00 1.7635973781870553e+00 0 0 0
736 1 1.9652419885867872e+01 1.2098532587090673e+01 5.1521591030043599e+00 0 0 0
460 1 2.7198066672449719e+00 5.9525208975591459e+00 9.1917784522455417e+00 0 1 0
489 2 9.3228817403945303e+00 1.3167619836211752e+01 7.2781414525243635e+00 0 1 -1
1561 1 6.1239707766432430e+00 1.8492402029703342e+01 9.0370580039535096e+00 0 0 0
1614 2 9.5500989477867915e+00 1.5018857454560357e+00 2.1799803661201560e+00 0 1 1
1766 2 1.6322438058162259e+01 1.7291987649990951e+01 3.2022485490733454e+00 0 0 1
1140 2 8.5170051771474498e+00 3.1276271952897670e+00 3.5572187146263645e+00 0 0 1
1317 2 -2.3140648916517570e-02 1.9466707965986171e+01 7.2286980680882031e+00 0 -1 0
1373 2 3.1811146844174791e+00 4.5235789584797441e+00 4.1464973837528714e+00 0 0 1
91 1 1.7756932065902664e+01 1.0866869329151017e+01 9.9668357130926211e+00 0 0 -1
1126 1 8.5509645654611290e+00 7.6378100028971012e+00 5.1287119121068354e+00 0 1 1
1527 2 3.9800259965594194e+00 1.4544319042189693e+01 9.2664523447252751e+00 0 0 1
438 2 2.8693908564380570e+00 2.5581171219411205e+00 3.1825744541264971e+00 0 0 0
698 2 1.4958321798637840e+01 1.9515005220902079e+01 2.8104455275752316e+00 0 0 1
1781 2 9.5438360794987265e+00 8.2347434388403382e+00 9.4127727854686345e+00 0 0 0
886 1 1.1708535840608015e+01 1.1488560786107444e+01 8.8033477013246504e+00 0 0 0
685 1 1.8776884677900765e+00 1.8348541593538485e+01 2.5765448000137003e+00 0 0 0
1314 2 2.1312631781985614e-02 3.2499770680042213e+00 2.9384417007012797e+00 0 0 1
1139 2 8.5374197708132087e+00 1.7004940923687923e+00 4.2980452005068495e+00 0 0 1
1785 2 1.2541555420039053e+01 6.6837757742622284e+00 4.9074635474476667e+00 0 0 0
461 2 2.0944104817942857e+00 5.3196854084819511e+00 9.6179286510193069e+00 0 1 0
682 1 1.1470989262100264e+01 2.6210503391318083e+00 4.6891568737425491e+00 0 0 0
1370 2 6.9375945143216793e+00 1.0834342080789806e+01 5.0052610449048824e+00 0 0 1
234 2 1.1114449327525028e+01 1.0971874332015037e+01 5.0240453046800067e+00 0 0 -1
965 2 1.1515979195418000e+01 4.0369131630244972e+00 7.2906330156350396e+00 0 1 0
482 2 1.2526681951515544e+01 1.9315511914816774e+01 2.6840734646932596e+00 0 0 0
315 2 1.4073206109764831e+01 1.3389316286571258e+01 8.5468414506873902e+00 0 0 0
225 2 -1.3417780546020941e-01 8.4559457589672293e-01 4.0011733916468790e+00 0 1 0
1306 1 6.2653285601953970e+00 4.4717326316053025e+00 1.7638517334920110e+00 0 0 1
1620 2 1.2194123684607863e+01 1.9678720347083750e+01 4.9297240264086435e+00 0 -1 0
1305 2 6.4807455718542579e+00 1.4043694087251440e+01 3.7013549046403140e+00 0 -1 1
1127 2 8.7464971715569284e+00 8.5511634772000438e+00 5.3384519417988479e+00 0 1 1
1369 1 6.7905728246514210e+00 1.0793994571460589e+01 4.0713275658052712e+00 0 0 1
530 2 1.4939020299799614e+01 7.4584709575321959e+00 8.4930515704983822e+00 0 1 -1
19 1 -4.0340182253275553e-01 5.1935167764653380e+00 7.8995020127749767e+00 0 0 0
888 2 1.2201735719361789e+01 1.2366688282290578e+01 8.6212982288733198e+00 0 0 0
495 2 8.8197006556524649e-01 8.4462773325824667e+00 9.7781262504084641e+00 0 0 -1
671 2 4.6279273585512941e+00 1.4441055400642412e+01 7.2048474757084184e+00 0 -1 0
1350 2 1.1154381000890137e+01 1.7359722978319809e+01 3.5317365559567491e+00 0 -1 0
903 2 1.9291872239166281e+01 2.0967459692310020e+00 4.1310318771916119e+00 0 1 0
1793 2 9.1134978783265730e+00 2.6135956872982580e+00 1.7485630985806239e-01 0 0 1
439 1 1.0572502637438435e+00 9.7875675364445751e+00 2.7038504701600219e-01 0 1 0
871 1 9.2440851683238812e+00 5.6898108541425438e+00 8.7375516579251700e-01 0 0 0
1544 2 1.1287250288341080e+00 1.4309041487372385e+01 6.3101969026555089e+00 0 0 0
1540 1 4.2878157902157783e+00 1.8726490278722263e+01 1.3159007828376521e+00 0 -1 1
1579 1 2.2313008153419180e+00 1.5224163053613044e+01 5.6394684488440507e+00 0 -1 0
1541 2 3.3840008473698138e+00 1.8323996463808310e+01 1.4571921754006616e+00 0 -1 1
1332 2 1.6347212806024107e+01 1.0999390083295538e+01 3.6118163927267788e+00 0 0 0
95 2 4.5341072588595290e+00 8.4489426121450855e+00 9.5425665105508326e+00 0 0 0
1311 2 1.9208510908391801e+01 1.7390059235492192e+01 5.6016415363425676e+00 0 0 0
313 1 1.3142783098036496e+01 1.3652218424119347e+01 8.3809350599129111e+00 0 0 0
959 2 1.5426263363783809e+01 3.5449105847332523e+00 6.3648622683156706e+00 0 1 0
3 2 5.5243127180556879e+00 1.2138053410974334e+00 3.3981374929948580e+00 0 0 1
108 2 1.4612270968292144e+01 1.0942708545609099e+01 9.3745230916123798e+00 0 0 1
507 2 2.2329013336089956e+00 2.8136618456875415e+00 7.2934179926414577e+00 0 0 1
1546 1 1.1449541934870735e+01 1.5717596063496401e+01 6.2835503961591002e+00 0 0 1
93 2 1.8155150235379150e+01 1.1302461179157826e+01 9.1973491566161627e+00 0 0 -1
927 2 1.1225450334818239e+01 8.9637103031899432e+00 8.3405153065208797e+00 0 0 0
466 1 1.6302303593820042e+01 3.7429099846776013e+00 1.0610540911423281e+00 0 1 0
1554 2 1.1153060028314867e+01 7.2149363164318787e+00 3.4396800117056845e+00 0 0 1
231 2 4.0523180975498869e+00 1.2702860728899099e+01 6.2783770826781478e+00 0 0 0
1765 1 1.5989596527906357e+01 1.6351348137178686e+01 3.0813556726180469e+00 0 0 1
934 1 1.4967639063062101e+01 1.2187128108929464e+01 9.5161350310291248e-01 0 1 1
1783 1 1.2352973627409124e+01 6.6801117290848904e+00 5.8835703398038506e+00 0 1 0
1093 1 1.2979580480851414e+01 9.3519859109561700e+00 1.0622702907131811e+00 0 2 0
1357 1 9.5144407597008840e+00 6.4958397574138456e+00 9.5175283727349154e+00 0 0 0
256 1 5.8812479384739724e+00 1.3461385608723765e+01 2.1498609928323291e+00 0 0 1
1558 1 1.6832743881182022e+01 1.6074295994698090e+01 7.5536618427549218e+00 0 0 1
488 2 1.0339933341090097e+01 1.1973605066329796e+01 7.9919161753234036e+00 0 1 -1
709 1 1.9399470936206370e+01 5.1601820530936084e+00 4.8369595216300318e+00 0 0 0
1830 2 1.4516292027135767e+01 1.8977697534585797e+01 9.3176396545246494e+00 0 -1 0
662 2 8.1461607012687343e-02 1.5874720791189076e+00 7.4636327700945226e-01 0 0 1
699 2 1.5073987582119651e+01 1.9338351706700394e+01 1.3213707010015237e+00 0 0 1
1141 1 1.7646003813619657e+01 1.2539551655664164e+01 7.5759308356564781e-01 0 0 0
949 1 1.0789758493084735e+01 1.4137319739404262e+01 2.5898478728541425e+00 0 0 0
1321 1 5.6914292918216001e+00 1.1876305948296384e+00 5.6216075191594115e+00 0 1 1
1302 2 1.1290860807065981e+01 1.6267892545598077e+01 1.0003074584754016e+01 0 0 0
286 1 1.4843081348559867e+01 6.5589681666349904e+00 6.9795487231441555e+00 0 0 0
479 2 1.9410566598626612e+01 1.9694081911138202e+01 1.3461752324830845e+00 0 0 -1
1099 1 3.8042485349459820e+00 7.5638116713830765e+00 6.3402229410733302e+00 0 1 0
264 2 1.5532803735961927e+01 1.9369728043679789e+01 5.9612942694761557e+00 0 0 0
259 1 5.2975699399284251e+00 5.7325434511504660e+00 1.0052894380919453e+01 0 0 -1
1159 1 1.3925417607692387e+01 2.4745071101994331e+00 9.2401227592001920e+00 0 1 0
1521 2 8.5262364949319682e+00 6.1213699950140112e+00 6.2317908274747920e+00 0 0 1
938 2 3.0109093434180778e+00 7.6297108992490168e+00 1.6476462835374888e+00 0 0 0
490 1 3.6670936675884711e+00 4.3482023818931363e+00 7.0935261166390102e+00 0 1 0
896 2 6.9050954721175941e+00 5.4291185468568237e+00 7.3336139036494190e+00 0 0 0
719 2 3.6725570546993698e+00 1.0999198051344369e+01 7.6282174676984953e+00 0 0 -1
224 2 1.1429988311117181e+00 1.1633630776352071e+00 3.2648621464519971e+00 0 1 0
654 2 1.6545596546908743e+00 6.4564815130517494e-01 6.9587309761068541e+00 0 0 0
742 1 1.7151137300459911e+01 1.4593119410420499e+01 9.7032092094721669e+00 0 -1 0
249 2 9.3701265340155659e-01 1.3004592882611995e+01 1.0090727618325811e+01 0 0 -1
894 2 5.3700612509146000e+00 1.7710195642493822e+01 5.8837895539141130e+00 0 -1 0
1813 1 1.6497490571336709e+01 5.8828713631448517e+00 2.5531232965475645e+00 0 1 1
741 2 1.4223335756691782e+01 1.7168862513121713e+01 6.1259608312520142e-01 0 0 1
935 2 1.4269251995174759e+01 1.2888588013878827e+01 1.2038770717177831e+00 0 1 1
1399 1 2.8430756553731356e+00 3.5097521225309372e+00 1.6625204153680248e-01 0 0 1
688 1 1.6305036531860328e+01 7.2086632510221849e+00 4.8210756336321952e+00 0 0 0
1801 1 8.1051673469880043e+00 5.0121641766313330e+00 3.7971073507275572e+00 0 1 1
262 1 1.5096555607202049e+01 6.0970544650217791e-02 5.2093066791292246e+00 0 1 0
252 2 7.6893324180488296e+00 1.1653541856492843e+01 7.1999680474508745e+00 0 -1 0
1596 2 5.6597403445176697e+00 1.7973398160662011e+01 2.1403345217190624e+00 0 0 1
1398 2 1.7440690162633341e+01 8.1720366174769463e+00 5.9827436667226799e+00 0 -1 1
677 2 -7.0954195216570426e-03 9.2432656898703858e+00 1.1775342243091915e+00 0 0 0
1174 1 1.3472192158334876e+01 3.5586585291582962e+00 3.1652352640756503e+00 0 1 0
1397 2 1.7746454371496458e+01 9.2417960799934651e+00 6.8742213665984711e+00 0 0 1
1828 1 1.3737497202453131e+01 1.9568899021566967e+01 9.2685616316639798e+00 0 -1 0
470 2 1.2958410344180249e+01 1.5240750338325540e+01 8.9872833531834182e+00 0 0 -1
1367 2 1.9022347553315313e+01 1.7672466343237346e+01 7.4287254430251037e-01 0 0 1
233 2 1.1511593077252162e+01 1.1212638222034796e+01 3.6188166885268975e+00 0 0 -1
904 1 1.7845550213637221e+01 3.1284420804959501e+00 3.3339984241397316e+00 0 0 0
1208 2 1.9864760171946060e+01 1.9899197774570793e-01 7.6395847736669600e+00 0 1 0
922 1 9.7646166479797820e+00 1.0060600401820986e+01 5.7741810374859419e+00 0 -1 0
1756 1 1.5572112400633685e+01 1.2476922623296652e+01 8.6504676242830012e+00 0 0 1
105 2 1.3469037672872691e+01 7.4409725021527224e+00 3.1541647377568718e+00 0 0 0
950 2 1.0584920741945830e+01 1.4943898070015178e+01 3.0366604988089447e+00 0 0 0
48 2 3.6418671608370445e+00 1.0268152012731200e+01 4.1910242648657352e+00 0 -1 0
1351 1 6.2538089688751484e+00 1.6734672068768855e+01 4.7392209754739891e+00 0 0 1
1358 2 9.2411267953910201e+00 6.1056783415149942e+00 8.6867542221429392e+00 0 0 -1
1084 1 -7.3293404146341778e-02 8.3065400404404564e+00 8.2588514058406073e+00 0 0 0
891 2 3.0490677327357925e+00 8.7790612700444122e+00 5.8647228577401123e+00 0 0 0
1584 2 1.0790950128461672e+01 1.8030158031181941e+01 8.0986015652033103e+00 0 0 0
46 1 4.0667047537939816e+00 1.0828205137556292e+01 3.5152121840400743e+00 0 -1 0
89 2 9.6047522657263595e+00 1.2724170682399039e+01 2.8737033426540606e+00 0 0 0
1123 1 1.8304966786178639e+01 5.9567565251920152e-01 7.0746901715738675e+00 0 1 0
450 2 1.6199468535113798e+01 1.7733715744710597e+01 7.4448276539340563e+00 0 0 0
263 2 1.4187926016071158e+01 7.6127082721485342e-02 5.5358028006270210e+00 0 1 0
1359 2 9.6539680144252635e+00 5.7015364840669625e+00 1.0141676813038748e+01 0 0 0
1534 1 6.9958312333224466e+00 8.4682008988547839e+00 7.4717948626217083e+00 0 -1 0
689 2 1.5827222800006876e+01 6.6975031503083526e+00 5.4720969568428259e+00 0 0 0
444 2 2.2792224294641117e+00 6.4747754812986775e+00 6.2557439012243137e+00 0 1 0
471 2 1.3979269745784439e+01 1.6196257525930584e+01 9.7457770258329681e+00 0 0 -1
100 1 1.9547877570423907e+01 1.8872462249045412e+01 4.4855763580644430e+00 0 -1 0
1 1 5.0610199517082082e+00 1.1353009323426688e+00 2.5693478299381978e+00 0 0 0
1101 2 4.1208381912686933e+00 7.7964793915426966e+00 7.2675508063236034e+00 0 1 0
288 2 1.3986881981103130e+01 6.5819181080720721e+00 6.3780507204177175e+00 0 0 0
1619 2 1.2079799011812559e+01 2.2945506230140141e-02 6.5282338360587788e+00 0 0 0
670 1 4.8563749243294803e+00 1.5055086067976223e+01 7.9420414560384485e+00 0 -1 0
529 1 1.4956519911383767e+01 7.7529556810614952e+00 9.4830060887705692e+00 0 1 -1
940 1 1.7216935352038796e+01 1.6128447007083031e+00 9.4996813237616351e+00 0 1 1
303 2 1.8593283314632743e+01 7.0947649933268506e+00 7.5236258479145759e+00 0 0 -1
1372 1 2.5359308580570130e+00 3.8801372673245642e+00 4.5303146688091074e+00 0 0 1
300 2 1.7150383655987227e+01 1.9682276465631240e+01 3.5195106485299893e-01 0 -1 1
1157 2 1.4819829218369243e+01 1.3983075355998764e+01 5.2813964033144538e+00 0 0 0
1353 2 6.2447990336205867e+00 1.7022182300628213e+01 3.7649002687184865e+00 0 0 1
1518 2 9.0860945477802058e-01 1.4912234219805185e+01 5.6803601847703211e-01 0 0 1
1186 1 5.4295867392278163e-01 1.0834397469232165e+01 6.3044309877882343e+00 0 0 0
527 2 1.4672643947896347e+01 9.4886476519497709e+00 3.5173152286259635e+00 0 0 0
517 1 1.3724237934591853e+01 1.0233070294765284e+01 6.1565439998415590e+00 0 0 0
752 2 4.8360519288752704e+00 4.8232589887678374e+00 2.4093073130025813e+00 0 1 0
452 2 6.2157620834213576e+00 1.1702334678970876e+01 1.0133121156461852e+01 0 0 -1
885 2 1.0799055081773160e+01 2.4460677984479169e+00 8.5164317840916954e+00 1 0 0
686 2 1.4630987234028874e+00 1.8514049001186446e+01 1.6815618792688238e+00 0 0 0
462 2 2.4716371389913565e+00 6.8484317344187717e+00 9.5036318207097636e+00 0 1 0
269 2 1.8352055116634610e+01 8.9626401614938782e+00 1.2363558611651115e+00 0 0 0
319 1 1.3021178850473330e+01 1.3486998238522910e+01 5.6898559668403168e+00 0 -1 1
1175 2 1.3454038397728745e+01 3.1467926319951385e+00 2.3020569519844853e+00 0 1 0
292 1 1.9254636818149628e+01 1.1561963735262525e+01 7.6702413195240950e+00 0 -1 -1