LAMMPS data file via write_data, version 15 Apr 2020, timestep = 200000

972 atoms
2 atom types

1.3905194825879796e-01 1.9852001051744015e+01 xlo xhi
-4.5473170797674101e-03 1.9995600317080466e+01 ylo yhi
1.9923434692385023e-01 2.0601537653075820e+01 zlo zhi
-4.5151939851150347e-02 1.0705878131714851e-01 7.6113654452380948e-03 xy xz yz

Masses

1 16
2 2

Atoms # atomic

4 1 4.4798130670128025e+00 1.2145186337073508e+00 3.4160375364355797e+00 0 0 0
5 2 4.4271026912855431e+00 2.2293915476273574e+00 3.3858962153171772e+00 0 0 0
6 2 3.6727666778139012e+00 9.8869460551484212e-01 3.9107043987759393e+00 0 0 0
7 1 6.1433189598990898e+00 4.5651408763271037e+00 5.4980346261413082e+00 0 0 0
8 2 6.9757295958700443e+00 4.6810106006607057e+00 4.9646470564264886e+00 0 0 0
9 2 5.4898853112864048e+00 4.3415152461180746e+00 4.8181356777935882e+00 0 0 0
10 1 1.4348110641105480e+00 3.7967125680587266e+00 3.9129775326988980e+00 0 0 0
11 2 8.2785175379156262e-01 4.0177873265544619e+00 4.7219406080796240e+00 0 0 0
12 2 1.2763435187274834e+00 4.5098007350901907e+00 3.2648536273623532e+00 0 0 0
13 1 4.8622734567981487e+00 5.5288474519685460e+00 1.8464076337376663e+00 0 0 0
14 2 4.4349007549242101e+00 6.3105907975665243e+00 2.3078175731779718e+00 0 0 0
15 2 4.3179050070236169e+00 5.4283676317247673e+00 9.7580004725031722e-01 0 0 0
16 1 4.3065944732326136e+00 3.7287899656222678e+00 3.5823653956202270e+00 0 0 0
17 2 4.5402450451939957e+00 4.3324050647909464e+00 2.7819618332687104e+00 0 0 0
18 2 3.3817485137152481e+00 4.0044183253119723e+00 3.7829826219748401e+00 0 0 0
19 1 1.0468833706225413e+00 5.8084710297424786e+00 2.1025937819726268e+00 0 0 0
20 2 1.2643028980436213e+00 6.7221933266190455e+00 2.4331887319941994e+00 0 0 0
22 1 2.4120455761180177e+00 8.1534946619561954e-01 5.3604552385366446e+00 0 0 0
23 2 1.4353978309276119e+00 9.1998775873921901e-01 5.2184517729860644e+00 0 0 0
24 2 2.6264010640668980e+00 1.4558968350007293e+00 6.0584933266347809e+00 0 0 0
25 1 2.5671608634063219e+00 5.4396835758211992e+00 6.8594131002081156e+00 0 0 0
26 2 2.4294572059937702e+00 6.0747175134753926e+00 6.1461004975817461e+00 0 0 0
27 2 3.4786076148914096e+00 5.5793658516943161e+00 7.2788960472112239e+00 0 0 0
28 1 5.9444466063408701e+00 5.6436343937428168e-01 5.6936906470037645e+00 0 0 0
29 2 5.4510511382602251e+00 7.1794214585705374e-01 4.7867195801277997e+00 0 0 0
30 2 5.8417639865541577e+00 1.9592276674292677e+01 5.8639885202746367e+00 0 0 0
31 1 1.1465911988882120e+00 1.7046281544026516e+00 2.2836512346679436e+00 0 0 0
2 2 3.9078331128619985e+00 2.6358064645386317e+00 7.4464267631430625e-01 0 0 0
33 2 1.2190076282339417e+00 2.3936220296660391e+00 3.0271330319075007e+00 0 0 0
62 2 9.2680846032717223e+00 4.5779502755671579e+00 7.0077819729942465e+00 0 0 0
35 2 6.1160680533229188e+00 2.7059646923171607e+00 1.2807404968535656e+00 0 0 0
46 1 8.2082718907057899e+00 4.4308926332884990e+00 3.8299669287026128e+00 0 0 0
47 2 9.1427177052137267e+00 4.3307725810409208e+00 3.9374498884000562e+00 0 0 0
48 2 8.0983163723062219e+00 5.0949714558925834e+00 3.0078580769659746e+00 0 0 0
55 1 7.5221055481083932e+00 6.0069944918704863e+00 1.7459018740537939e+00 0 0 0
56 2 7.7213748614524738e+00 6.9731878397740132e+00 1.9312143952880496e+00 0 0 0
57 2 6.5509915656817093e+00 5.8813100624242249e+00 1.7970208064125841e+00 0 0 0
58 1 8.8201854441324539e+00 8.3113138561873834e-01 5.2854213842081883e+00 0 0 0
59 2 9.5477245270783531e+00 9.4593795227212996e-01 4.6896787945862553e+00 0 0 0
60 2 8.0851094150390814e+00 8.9731924724067968e-01 4.6510182960881563e+00 0 0 0
61 1 9.6225082672492306e+00 5.4817110264846836e+00 7.1008572651902631e+00 0 0 0
111 2 1.8851715011574464e+00 9.0366575175955379e+00 8.8351803650108685e-01 0 0 0
63 2 9.0413878428430348e+00 5.9303024285459234e+00 7.7223944743762960e+00 0 0 0
67 1 7.8221908565025835e+00 2.1581897716850471e+00 2.4613611895329019e+00 0 0 0
68 2 8.3087033774300654e+00 2.8697351151143526e+00 3.0068946052036480e+00 0 0 0
69 2 8.5478795236084437e+00 2.1571143055685531e+00 1.7752043990120066e+00 0 0 0
32 2 3.0961582210981009e-01 1.9840513498294980e+00 1.7806870957351111e+00 0 0 0
891 2 3.5416774918873029e+00 1.8904109206069087e+01 2.3837433922094789e-01 0 0 0
277 1 9.1083757952506890e+00 1.8693304722578922e+01 6.9233365358524726e+00 0 0 0
112 1 4.0493053389509139e+00 7.6358210566747955e+00 3.6613811712031845e+00 0 0 0
113 2 4.8063946688199843e+00 7.5873986103005944e+00 4.2464413096076825e+00 0 0 0
114 2 3.9527673942328736e+00 8.6007682529962981e+00 3.5009745965079229e+00 0 0 0
115 1 5.9267905781884274e+00 1.0883564163135858e+01 5.5755668981743796e+00 0 0 0
116 2 5.9285489056023737e+00 1.1840550900970424e+01 5.7757961933130222e+00 0 0 0
117 2 5.6210696211835183e+00 1.0313958082595233e+01 6.3341061221098780e+00 0 0 0
118 1 1.3223075193158644e+00 1.0810109783221478e+01 3.6917609964172082e+00 0 0 0
145 1 9.0148960128949689e+00 9.5213339198551559e+00 3.5207705144939305e-01 0 0 0
120 2 2.2990735223148659e+00 1.0937620532250257e+01 3.8855146929095574e+00 0 0 0
121 1 4.7944550712085787e+00 1.2093871971483544e+01 1.7702796646009167e+00 0 0 0
122 2 5.7683739958005811e+00 1.2029177563115997e+01 1.4875440038118688e+00 0 0 0
123 2 4.4727201853190337e+00 1.2015671024702527e+01 8.4363143010850705e-01 0 0 0
124 1 3.9794917143289212e+00 1.0362130435997310e+01 3.5970081597178507e+00 0 0 0
125 2 4.2045395590166263e+00 1.1019109356787922e+01 2.8641900111901379e+00 0 0 0
126 2 4.6057439925479899e+00 1.0471427474323953e+01 4.2970601022896444e+00 0 0 0
250 1 5.3048525308810071e+00 1.5851315402536807e+01 5.4500660088626618e-01 0 0 0
128 2 1.6916629364044176e+00 1.2466074972258765e+01 1.0800241663100074e+00 0 0 0
129 2 1.0275432002445795e+00 1.1935064297767894e+01 2.4352883988994134e+00 0 0 0
130 1 1.9601856608775525e+00 7.6329517243888976e+00 5.1936124842764881e+00 0 0 0
131 2 2.6947639270624411e+00 7.5762092016102427e+00 4.4669461773096764e+00 0 0 0
132 2 2.1499673466658020e+00 8.3352471354984274e+00 5.8194701498190504e+00 0 0 0
133 1 2.7621593727590401e+00 1.1843094463855198e+01 7.3728173169677085e+00 0 0 0
134 2 1.9929110422380578e+00 1.2045370151202635e+01 7.9431125821245594e+00 0 0 0
135 2 2.7377051895379929e+00 1.2471448505793751e+01 6.6627631251118506e+00 0 0 0
136 1 6.1578174921851589e+00 7.3812761362515404e+00 5.4616884519751014e+00 0 0 0
137 2 6.1056335695514568e+00 6.3678915701235166e+00 5.5534812980819064e+00 0 0 0
138 2 7.0602626539147062e+00 7.5621375646661422e+00 5.1548659215782857e+00 0 0 0
139 1 1.0298520554660224e+00 8.6540262719148391e+00 2.3555111294857358e+00 0 0 0
140 2 1.2381543881133876e+00 9.4090846401947292e+00 2.9170017470400533e+00 0 0 0
253 1 9.0911735097359063e+00 1.6150095403644627e+01 5.9380338054504089e-01 0 0 0
147 2 8.3635112164612604e+00 9.2146205967963244e+00 1.0495162855702915e+00 0 0 0
141 2 1.5451262559077669e-01 8.7735859645400520e+00 1.9606032022595645e+00 0 0 0
154 1 8.0210862541742323e+00 1.0861813458752613e+01 3.8518578183841408e+00 0 0 0
155 2 7.5636680128342277e+00 1.0625612745409471e+01 4.6540135892169534e+00 0 0 0
156 2 8.9915043674491191e+00 1.0620649731969575e+01 3.7389049176435689e+00 0 0 0
163 1 7.8171917098833639e+00 1.3148227196348639e+01 2.2837141893521555e+00 0 0 0
164 2 7.9473886589409064e+00 1.2525572239147522e+01 2.9735684769924124e+00 0 0 0
165 2 8.3742292721805764e+00 1.2909944433012519e+01 1.5391461906092756e+00 0 0 0
166 1 9.1208099482846681e+00 7.3467385554390390e+00 5.1052224802154935e+00 0 0 0
167 2 9.1175769358368193e+00 8.0138228348580363e+00 5.8377750098497447e+00 0 0 0
168 2 9.1605969398252753e+00 6.5049965679675781e+00 5.6039654887404753e+00 0 0 0
169 1 9.2210058009697438e+00 1.1775558395110878e+01 6.8008807758129137e+00 0 0 0
171 2 9.0465618461670729e+00 1.2487744119531303e+01 6.1872582210278546e+00 0 0 0
175 1 7.1217673723550954e+00 8.6076312273943589e+00 2.4152095046173487e+00 0 0 0
176 2 7.3652721204423495e+00 9.4148806948108543e+00 2.9255356731377287e+00 0 0 0
177 2 6.3707597795773063e+00 8.9112360282508636e+00 1.8441712532146859e+00 0 0 0
450 2 4.3505455806359015e+00 1.1349422279767607e+01 9.9206493289142692e+00 0 0 0
3 2 2.3819722577168982e+00 2.3291605240574604e+00 1.1993411558786602e+00 0 0 0
479 2 7.6063431619865032e+00 1.1197105566483014e+01 1.0109609067628336e+01 0 0 0
558 2 4.5052600328131884e+00 1.8236642621512921e+01 9.7685806348508351e+00 0 0 0
675 2 2.0617726291598721e+00 5.6529935270369336e+00 7.2903900261880461e-01 0 0 0
220 1 4.1876518919064543e+00 1.4216110135326295e+01 3.4050410909369235e+00 0 0 0
221 2 4.3740401823008108e+00 1.5156552892086580e+01 3.1942011271739910e+00 0 0 0
222 2 4.6250047150418681e+00 1.3553200765658461e+01 2.8623369756066981e+00 0 0 0
223 1 5.9311369655637973e+00 1.7548701345922161e+01 5.6711367431907362e+00 0 0 0
224 2 6.8396630862613916e+00 1.7680469916744791e+01 5.4003448115102746e+00 0 0 0
225 2 5.7203187878200437e+00 1.6835158560283098e+01 6.3170883118039489e+00 0 0 0
226 1 1.7759815065557203e+00 1.7571244261258229e+01 3.6554007625534375e+00 0 0 0
227 2 1.5409281244216624e+00 1.8235101327981667e+01 2.9855819142200359e+00 0 0 0
228 2 1.5312297959358470e+00 1.6685626058035908e+01 3.4385841607982885e+00 0 0 0
229 1 4.7594596589697442e+00 1.8884988137229534e+01 1.7491985335009199e+00 0 0 0
230 2 4.7430962716455394e+00 1.8183832977260906e+01 2.4419509133869566e+00 0 0 0
231 2 4.5052979083758418e+00 1.9753601797847466e+01 2.1915070877101233e+00 0 -1 0
232 1 4.4634190312696189e+00 1.7059578264708044e+01 3.5700604984013329e+00 0 0 0
233 2 3.5405979001234966e+00 1.7397068420334826e+01 3.8098083023889631e+00 0 0 0
234 2 5.0951222311793769e+00 1.7156547524749250e+01 4.3111262023122583e+00 0 0 0
235 1 9.3486667594068318e-01 1.9176083411114227e+01 1.7699857506393197e+00 0 0 0
236 2 1.1449803375431267e+00 8.0788884061213428e-02 2.1162224841035311e+00 0 0 0
237 2 1.5222620279479508e+00 1.8905506860196567e+01 1.0496125023662488e+00 0 0 0
238 1 2.5818276077182434e+00 1.3850907119471961e+01 5.5642443013099454e+00 0 0 0
239 2 3.0656806014571494e+00 1.3925047584851905e+01 4.6851058467094084e+00 0 0 0
240 2 1.6143378368298911e+00 1.3861141277013854e+01 5.4967665605275409e+00 0 0 0
241 1 2.9715837598303030e+00 1.8643666754653438e+01 6.8433368572331998e+00 0 0 0
242 2 2.7083697017939161e+00 1.9300212587735174e+01 6.1391034349874474e+00 0 0 0
243 2 2.9604820129224714e+00 1.7704360914837544e+01 6.5697281643343475e+00 0 0 0
244 1 6.0467180365665012e+00 1.3604792690204192e+01 5.3394970631473582e+00 0 0 0
245 2 5.9533054346254355e+00 1.4261797584916314e+01 6.0101213395285384e+00 0 0 0
246 2 5.2806026043826950e+00 1.3795318131397650e+01 4.6290862340582075e+00 0 0 0
247 1 1.0707210760375183e+00 1.5293612660862236e+01 2.4127722362184532e+00 0 0 0
248 2 1.2129670237954575e+00 1.4314618906750979e+01 2.6300142953748620e+00 0 0 0
249 2 1.8451909071102615e+00 1.5486924553197046e+01 1.8425289211391795e+00 0 0 0
251 2 5.7840945505864401e+00 1.5755205820571698e+01 1.3913119410019295e+00 0 0 0
297 2 3.9354968682863128e-01 1.7863177404809228e+01 4.5909908758052209e+00 1 0 0
262 1 8.2605608019363750e+00 1.7813352838108976e+01 4.2674642660378863e+00 0 0 0
263 2 9.2700577728282845e+00 1.7589163632625628e+01 4.1117829146046461e+00 0 0 0
264 2 8.2025839566877092e+00 1.8646296354886374e+01 3.7779730388929615e+00 0 0 0
271 1 7.5386841514281100e+00 1.9497644666640568e+01 2.2448336086132499e+00 0 0 0
272 2 7.5276448326010579e+00 3.9381158048262438e-01 2.3443832572843508e+00 0 0 0
273 2 6.6968117147594448e+00 1.9224064757413224e+01 1.8882185742527162e+00 0 0 0
274 1 8.9203114427145778e+00 1.3932502636110591e+01 5.2388546987877236e+00 0 0 0
275 2 8.9082226352051332e+00 1.4758299525976168e+01 5.8144680027251914e+00 0 0 0
276 2 7.9546126169528435e+00 1.3827850088292177e+01 5.0585032380351516e+00 0 0 0
711 2 8.6786155113949892e+00 5.7973467110331853e+00 4.4882298698932643e-01 0 0 0
278 2 9.0059022931898092e+00 1.9407368142628044e+01 6.2430804922951495e+00 0 0 0
279 2 8.4334461586768796e+00 1.8925542932355171e+01 7.6066472216599026e+00 0 0 0
283 1 6.9869403128956575e+00 1.5709568951136250e+01 2.6163011660580238e+00 0 0 0
284 2 7.4982688017100365e+00 1.6349934570812835e+01 3.1420746253587120e+00 0 0 0
285 2 7.4021833666233681e+00 1.4798095651975075e+01 2.6414000108971605e+00 0 0 0
119 2 7.7754711124356357e-01 1.0943100309149582e+01 4.5020397266964851e+00 0 0 0
325 1 2.8508600942572442e+00 2.7136867402701874e+00 7.3357479213073091e+00 0 0 0
326 2 2.7198505623985310e+00 3.5838548772601868e+00 6.8254570050864132e+00 0 0 0
327 2 3.8138900167873322e+00 2.6023956190053688e+00 7.5082896391834790e+00 0 0 0
329 2 4.9020901932743346e+00 4.4041184159911917e-01 9.7653416118755594e+00 0 0 0
337 1 4.7660483157713127e+00 5.5377622190555691e+00 8.3629340023257797e+00 0 0 0
338 2 4.6013969067465483e+00 4.7250259785541653e+00 8.8617354437943998e+00 0 0 0
339 2 4.4840384389720711e+00 6.1994598398270426e+00 8.9912065037497246e+00 0 0 0
343 1 1.1246125060663124e+00 6.2751526813561789e+00 8.9995707813101244e+00 0 0 0
344 2 1.2111260253597644e+00 5.4740364576390999e+00 9.6049215761359896e+00 0 0 0
345 2 1.4461450885718932e+00 5.9909581301660397e+00 8.1284897627349970e+00 0 0 0
355 1 1.0933793457580641e+00 2.0390821521036373e+00 9.0554779333910265e+00 0 0 0
356 2 8.2470474809495209e-01 1.1162706671817220e+00 9.2156096623262975e+00 0 0 0
357 2 1.7499107446183491e+00 2.0078389163546730e+00 8.3378110864654289e+00 0 0 0
358 1 5.3964094923967494e+00 2.3047873082938288e+00 7.3432587638041058e+00 0 0 0
359 2 5.8119859887356640e+00 2.9743050710034042e+00 6.7565473171917736e+00 0 0 0
360 2 5.5298905874008382e+00 1.5518713386782028e+00 6.7314730773022493e+00 0 0 0
361 1 9.1288005742110983e+00 2.7455606313055871e+00 7.2266750966665452e+00 0 0 0
362 2 9.1661232196696307e+00 2.2310898919590176e+00 6.4053922935126630e+00 0 0 0
363 2 8.5074196393878729e+00 2.3089012467930279e+00 7.8053874013359072e+00 0 0 0
254 2 8.4352818502750360e+00 1.5900311655901181e+01 1.2896553798664434e+00 0 0 0
379 1 7.4965670780709708e+00 6.1691384246775378e+00 8.7039033426907135e+00 0 0 0
380 2 7.3188684462739557e+00 7.0936269811020205e+00 8.9557876890493837e+00 0 0 0
381 2 6.5639430150825282e+00 5.8237237161728892e+00 8.6801049558164785e+00 0 0 0
391 1 7.3731931006554436e+00 2.2407258709412674e+00 9.1834028973708914e+00 0 0 0
142 1 5.2705768491978686e+00 8.9283904948537014e+00 4.7064158215737967e-01 0 0 0
393 2 6.5679975653574374e+00 2.3248772749406728e+00 8.6534328957503899e+00 0 0 0
34 1 5.5412218919642049e+00 2.7172819707063116e+00 5.1468956527341336e-01 0 0 0
433 1 2.4552554008654144e+00 9.2422557914878087e+00 7.1723745933309360e+00 0 0 0
434 2 2.6040125358041015e+00 1.0186385331700260e+01 7.2255118871474853e+00 0 0 0
435 2 1.7611166828755429e+00 9.0038814967224834e+00 7.8067684394704253e+00 0 0 0
372 2 7.8762460482456493e+00 5.0918993236928074e+00 1.0214979299107025e+01 0 0 0
445 1 4.9271590413684905e+00 1.2450515432240417e+01 8.6438483522995764e+00 0 0 0
446 2 4.7320876902393278e+00 1.3420324887461112e+01 8.8982279728860192e+00 0 0 0
447 2 4.3240067903174326e+00 1.2269598307611442e+01 7.9011050085329098e+00 0 0 0
392 2 7.4864306933938698e+00 3.0493935783969630e+00 9.6595207534960448e+00 0 0 0
451 1 7.8140144432714642e-01 1.2548458631546003e+01 8.8575109478289651e+00 0 0 0
452 2 9.3008194313115489e-01 1.3462364935029017e+01 8.9842343274542618e+00 0 0 0
463 1 5.2309429752131131e-01 8.8953291750716179e+00 9.0655278557759456e+00 0 0 0
465 2 7.4959550785179807e-01 7.9696606435136141e+00 9.3022625859279717e+00 0 0 0
466 1 5.2911780251302227e+00 9.0153183930352405e+00 7.2493621090569125e+00 0 0 0
467 2 5.4443554141531756e+00 8.2761948206903515e+00 6.6129383096700511e+00 0 0 0
468 2 4.3278376957203495e+00 8.9916050515789259e+00 7.4870359651280056e+00 0 0 0
469 1 9.2797785640853938e+00 9.0389643554341603e+00 7.2263402934954861e+00 0 0 0
927 2 8.4452442668641687e+00 1.9217434450122013e+01 1.0308953073678169e+00 0 0 0
471 2 8.5004645079376715e+00 9.0373534556534061e+00 7.8161976313834760e+00 0 0 0
573 2 1.0597750113802071e+00 1.6000446852367780e+01 9.8736888283387305e+00 0 0 0
487 1 7.6806169118941341e+00 1.2685076087138370e+01 8.9451771323780775e+00 0 0 0
488 2 8.2165050932000252e+00 1.2540514776406056e+01 8.1358455523917588e+00 0 0 0
489 2 6.7168757316991465e+00 1.2459687435684947e+01 8.6731398786053884e+00 0 0 0
499 1 7.2745735370224027e+00 8.8109090769800300e+00 8.9076420766147208e+00 0 0 0
500 2 7.3917707129067285e+00 9.0701790249809324e+00 9.8189579791550177e+00 0 0 0
501 2 6.3822399001572139e+00 9.1021441727872006e+00 8.5905956003348258e+00 0 0 0
127 1 1.0248559072365671e+00 1.2647366199257963e+01 1.7453272633019825e+00 0 0 0
609 2 7.7667599996275412e+00 1.5866811762586714e+01 9.8030954487100459e+00 0 0 0
541 1 3.0586829150874451e+00 1.6099069640328324e+01 7.1562962520776230e+00 0 0 0
542 2 2.4075071112171158e+00 1.6037438363341856e+01 7.9051230282193146e+00 0 0 0
543 2 2.7542744638406060e+00 1.5430005250975579e+01 6.4749167929684273e+00 0 0 0
553 1 4.9892127334036624e+00 1.9187473059443739e+01 8.6909561580178298e+00 0 0 0
554 2 5.9867830966834035e+00 1.9209457145619787e+01 8.5897660054998095e+00 0 0 0
555 2 4.5681065295964807e+00 1.8975292694088729e+01 7.8125967485618322e+00 0 0 0
608 2 7.6721969050465901e+00 1.4423295634077052e+01 9.1847272937628865e+00 0 0 0
559 1 6.6778949429812184e-01 1.9234380264569324e+01 8.6661013371366931e+00 0 0 0
560 2 1.3655263788322429e+00 1.8970967892806904e+01 7.9861319142985963e+00 0 0 0
561 2 9.0786586635533073e-01 1.8808874930785862e+01 9.4876809130510296e+00 0 0 0
571 1 1.0610760091232070e+00 1.5448893399094802e+01 9.0465458872462428e+00 0 0 0
574 1 5.6251228090288992e+00 1.5437098381354771e+01 7.2781553629041449e+00 0 0 0
575 2 6.0629621554436692e+00 1.5583281712787477e+01 8.1316448760293252e+00 0 0 0
576 2 4.6599097336209487e+00 1.5525200546504909e+01 7.4630702794767592e+00 0 0 0
577 1 9.3683944708118254e+00 1.5997391144136310e+01 6.8282449733033053e+00 0 0 0
578 2 9.2946130163734786e+00 1.6954847920797370e+01 6.5774980286509876e+00 0 0 0
579 2 8.8494693855054649e+00 1.5854801768775664e+01 7.6307350919913457e+00 0 0 0
557 2 4.6179243345263341e+00 1.6732820279782707e+01 1.0251136076809455e+01 0 0 0
595 1 7.5523276911974175e+00 1.9471573900877118e+01 8.9807023712934182e+00 0 0 0
596 2 7.8715581233902734e+00 2.6918961701986327e-01 9.4628149305762665e+00 0 0 0
597 2 7.6531234324412463e+00 1.8683285730045746e+01 9.6651830005851291e+00 0 0 0
607 1 7.5480244888436063e+00 1.5378012469666182e+01 9.0392621038738064e+00 0 0 0
150 2 9.9744493413118267e+00 7.7695279821033614e+00 3.9222609674144389e+00 0 0 0
544 1 4.4993373477148513e+00 1.4831824962062141e+01 1.0026130784901049e+01 0 0 0
143 2 4.3203546684409835e+00 8.9656169319721197e+00 4.9377162324846108e-01 0 0 0
444 2 1.2960216363978287e+00 1.1445580871768950e+01 1.0196698740844983e+01 0 0 0
470 2 9.2343126029352245e+00 9.9555718605017400e+00 6.9511944651068820e+00 0 0 0
572 2 3.9412567762327694e-01 1.5769190916817537e+01 8.4295203624592112e+00 0 0 0
335 2 1.1916432595499207e+00 3.3145650476538546e+00 1.0060356140010299e+01 0 0 0
437 2 4.0479363469892302e+00 8.8158920225388311e+00 9.9728222793035854e+00 0 0 0
436 1 4.0744006729751643e+00 7.8475834173898633e+00 1.0098090814575736e+01 0 0 0
1 1 2.9406230327697482e+00 2.6609010810401705e+00 4.5200815129894178e-01 0 0 0
545 2 3.6520798957518665e+00 1.4492442698663508e+01 1.0350265747918760e+01 0 0 0
146 2 9.0457851705860950e+00 1.0528775956084729e+01 3.7219478765679331e-01 0 0 1
218 2 3.6355790401734636e+00 1.6141207889700503e+01 3.3582105510518012e-01 0 0 0
925 1 9.0842463262220523e+00 1.8966735569606833e+01 2.9432710108929844e-01 0 0 1
443 2 1.2228432759616044e+00 9.9036166658632858e+00 1.0378984560267071e+01 0 0 0
109 1 2.5302500703079773e+00 9.1317590191141100e+00 2.0868379762761802e-01 0 0 0
37 1 9.4887170186751497e+00 2.9170250759839238e+00 2.0290467255206906e+01 0 0 -1
334 1 1.3436499725091102e+00 4.1024627874144688e+00 1.0662910637375131e+01 0 0 0
782 2 2.9186295126154813e+00 1.0845720022201057e+01 2.0230473554958749e+01 0 0 0
513 2 2.5979127854546202e-01 1.1260620584559916e+01 1.1817755961199330e+01 0 0 0
39 2 9.0382485955732630e+00 2.3646498201847526e+00 1.9593362340913089e+01 0 0 0
552 2 2.6189724571771356e+00 1.7542569560307378e+01 1.0840257161484445e+01 0 0 0
331 1 5.7505237632708335e+00 4.7943926121675986e+00 1.2552877004988392e+01 0 0 0
332 2 6.5205541567413352e+00 4.5088769672872901e+00 1.2029892054901582e+01 0 0 0
333 2 5.0849553835014243e+00 4.4900683240050441e+00 1.1830474022877423e+01 0 0 0
384 2 9.5409342802727330e+00 9.8330448997326014e-01 1.1297421101695459e+01 0 0 0
794 2 8.9554961816379670e+00 1.0400955004671090e+01 1.3880654612478592e+01 0 0 0
370 1 7.9794274457730401e+00 4.5366351109482368e+00 1.0973321614306322e+01 0 0 0
346 1 2.5491093494488584e+00 4.4021545467974427e-01 1.2000597505753031e+01 0 0 0
347 2 3.2284315368214251e+00 5.3932863457723579e-01 1.1280361846994493e+01 0 0 0
348 2 2.7020803006927046e+00 1.3028447374157548e+00 1.2567144935156946e+01 0 0 0
349 1 2.0902952319949923e+00 5.2823801514246878e+00 1.3561233810213837e+01 0 0 0
350 2 2.2668866918642210e+00 5.6459982850532953e+00 1.2675216303829336e+01 0 0 0
351 2 1.9209983426796096e+00 4.3280882749634957e+00 1.3408660291988699e+01 0 0 0
352 1 6.1872298091052738e+00 8.4392803547954021e-01 1.2543612601395260e+01 0 0 0
353 2 7.0529913143194873e+00 1.0605528046825545e+00 1.2088728047270633e+01 0 0 0
354 2 6.1716369146065437e+00 1.9906098690635240e+01 1.2908427113178165e+01 0 0 0
550 1 1.6357434088089524e+00 1.7610220614029885e+01 1.0685549049214684e+01 0 0 0
382 1 8.9273694126675256e+00 8.7538200303131730e-01 1.2048268498111113e+01 0 0 0
383 2 9.0910404104646343e+00 5.4881429928306566e-02 1.2475114794005705e+01 0 0 0
674 2 2.7220506463670930e+00 4.3719570615994021e+00 2.0450112518699029e+01 0 0 0
385 1 9.2181588966872940e+00 5.5304600119816794e+00 1.3515005517008008e+01 0 0 0
386 2 9.1586972141611085e+00 4.5224755109187571e+00 1.3455728224421508e+01 0 0 0
387 2 8.5096624406949282e+00 5.7490757121666549e+00 1.4176265851960450e+01 0 0 0
330 2 5.2854728712831562e+00 9.2885178109090127e-01 1.1126053215635602e+01 0 0 0
667 1 7.8743572471561785e-01 6.1130016057290550e+00 1.5727881346340551e+01 0 0 0
439 1 5.8462039764107265e+00 1.1311449794415280e+01 1.2590058178773202e+01 0 0 0
440 2 5.8540957415629720e+00 1.2307247916165114e+01 1.2754931657160020e+01 0 0 0
441 2 5.1216701798309092e+00 1.1173124853976688e+01 1.1921716771083689e+01 0 0 0
336 2 6.0085012616099676e-01 4.2311416642724975e+00 1.1334325287285040e+01 0 0 0
454 1 2.1696992432724773e+00 7.2961566101217166e+00 1.1854190513173238e+01 0 0 0
455 2 2.7834419745731065e+00 7.4377708716233286e+00 1.1069172082579021e+01 0 0 0
456 2 2.4444145028096140e+00 7.9407476804549901e+00 1.2544497974065790e+01 0 0 0
457 1 2.4967518573217067e+00 1.2035912498344155e+01 1.3446778547492563e+01 0 0 0
458 2 3.3495294882006892e+00 1.2266838362416708e+01 1.3876618643594741e+01 0 0 0
459 2 1.8115406021661378e+00 1.2139242531080988e+01 1.4162380618786177e+01 0 0 0
460 1 5.9083779621432013e+00 7.3988355665765999e+00 1.1876007410009329e+01 0 0 0
461 2 5.9353826573102877e+00 6.5240063457217286e+00 1.2304277632442446e+01 0 0 0
462 2 6.8997169769075040e+00 7.5805276745643591e+00 1.1788920302490190e+01 0 0 0
775 1 8.1101724916919793e-01 1.2685248857474219e+01 1.5523092256072148e+01 0 0 0
480 2 7.2829020139802063e+00 1.0943252561134377e+01 1.1645033613826012e+01 0 0 0
449 2 3.2247120871275579e+00 1.0625392665929112e+01 1.0614899503802642e+01 0 0 0
490 1 8.6297697235837223e+00 7.5271643018274750e+00 1.1681006228277884e+01 0 0 0
491 2 8.8864555099217064e+00 6.7779419206632916e+00 1.2249029418091723e+01 0 0 0
492 2 8.8359019688194405e+00 8.3492603322907453e+00 1.2168233578857201e+01 0 0 0
493 1 9.1882038274500744e+00 1.2244546293687854e+01 1.3756831994588262e+01 0 0 0
494 2 8.6351622193778113e+00 1.2648681982935486e+01 1.4469332333965149e+01 0 0 0
495 2 9.0794399649818498e+00 1.2774379130798964e+01 1.2986643598620054e+01 0 0 0
438 2 4.7351129417235267e+00 7.7308346018337790e+00 1.0853014714102656e+01 0 0 0
602 2 9.8609601969574694e+00 1.8851784138877193e+01 1.4372431581609669e+01 0 0 0
587 2 9.0854778432925691e+00 1.7497089709798828e+01 1.0792852616120413e+01 0 0 0
889 1 2.8402645739235939e+00 1.8796637116849837e+01 2.0096302325437065e+01 0 0 0
897 2 1.2660809437194205e+00 1.6033206732823061e+01 1.6457462176892292e+01 0 0 0
551 2 1.2224999635021050e+00 1.7822169524675289e+01 1.1559704380602000e+01 0 0 0
547 1 6.2006336412708656e+00 1.8130589009204670e+01 1.2635186716076625e+01 0 0 0
548 2 5.6058646435653072e+00 1.7951038130873016e+01 1.1858516377514974e+01 0 0 0
549 2 5.7577115093167537e+00 1.7666312383329526e+01 1.3347562803650376e+01 0 0 0
781 1 3.1310881013250138e+00 1.1792375675789323e+01 2.0340697010440245e+01 0 0 0
562 1 2.3422555872460533e+00 1.3932764670246362e+01 1.1495630623462407e+01 0 0 0
563 2 1.3982345589027121e+00 1.4089638853702958e+01 1.1610471885482511e+01 0 0 0
564 2 2.4679226942659547e+00 1.3124941983382065e+01 1.2047228164794150e+01 0 0 0
565 1 2.9805558324711274e+00 1.8326014082041439e+01 1.3428431772319612e+01 0 0 0
566 2 2.7171386937068451e+00 1.9053600286370269e+01 1.2858701511749011e+01 0 0 0
567 2 3.6784546083538907e+00 1.8699547598172018e+01 1.4007112340240505e+01 0 0 0
568 1 6.1125958176673940e+00 1.4084664735781804e+01 1.2379653621451972e+01 0 0 0
569 2 7.0725174905148522e+00 1.4284081354535818e+01 1.2158647247042696e+01 0 0 0
570 2 5.8223165515583570e+00 1.4784005973889080e+01 1.2977374711629913e+01 0 0 0
932 2 7.9111575433596490e+00 1.6117964515032341e+01 1.6343111104230722e+01 0 0 0
931 1 7.7060007831557868e+00 1.5401047606744992e+01 1.5735231640147822e+01 0 0 0
588 2 7.6315627864672386e+00 1.7542970736406005e+01 1.1618553751258426e+01 0 0 0
598 1 8.7081635263422683e+00 1.4385559561133176e+01 1.1790736371195528e+01 0 0 0
252 2 5.7455103159130667e+00 1.6629066726586203e+01 2.0528296494777145e+01 0 0 0
600 2 9.0961963161907367e+00 1.5085126709630398e+01 1.2365884884977959e+01 0 0 0
601 1 9.0361372770586303e+00 1.8733087971493660e+01 1.3832915098846598e+01 0 0 0
603 2 8.3074805898421538e+00 1.8856261341543330e+01 1.4478888364741554e+01 0 0 0
858 2 6.5375422959644114e-01 7.3997073939878169e+00 1.8621692319244936e+01 0 0 0
110 2 2.3459066158503203e+00 8.4601351736332315e+00 1.9982757964054045e+01 0 0 0
649 1 2.7186106657348792e+00 2.5451188589681730e+00 1.3697561851560613e+01 0 0 0
650 2 3.5969833348954126e+00 2.5837032942526430e+00 1.4131329334288559e+01 0 0 0
651 2 2.1069536206271420e+00 2.3753643085111982e+00 1.4428517689533857e+01 0 0 0
652 1 4.0126936309055203e+00 1.0150811842187870e+00 1.6863425203628537e+01 0 0 0
653 2 3.9661252390256032e+00 1.9656453283312891e+00 1.6822563360211539e+01 0 0 0
654 2 4.5893191627463752e+00 7.1441839294446252e-01 1.7561859447441989e+01 0 0 0
655 1 5.7759213218763374e+00 4.3999403610937184e+00 1.8831970109123866e+01 0 0 0
656 2 5.8272976149921112e+00 5.3888285115771177e+00 1.9071942195528528e+01 0 0 0
657 2 6.6201692207412499e+00 4.2636598115240112e+00 1.8397411100480397e+01 0 0 0
658 1 1.3002060214399003e+00 4.1940299312509959e+00 1.7576416790471306e+01 0 0 0
659 2 9.8180297384265558e-01 3.5155339363802725e+00 1.6928296195020394e+01 0 0 0
660 2 1.2779783288661573e+00 5.0478335057513846e+00 1.7093667160904388e+01 0 0 0
661 1 4.5774064677365907e+00 5.8396120005825418e+00 1.5168882407370047e+01 0 0 0
662 2 4.1976769177623430e+00 5.2846710667646040e+00 1.5827104399781444e+01 0 0 0
663 2 3.9658897834349887e+00 5.6804298308902625e+00 1.4396209790165038e+01 0 0 0
664 1 3.8571222889265475e+00 3.7370184559924615e+00 1.7005078827722997e+01 0 0 0
665 2 2.9861173442707800e+00 3.9854124054742428e+00 1.7370517986985071e+01 0 0 0
666 2 4.5123462266945475e+00 3.9515959042542885e+00 1.7704896521799846e+01 0 0 0
426 2 7.2079256509315515e-01 3.7420969327779574e-01 1.1956806085268333e+01 0 0 0
668 2 7.9457123569989418e-01 7.0867331176164710e+00 1.5865823454246959e+01 0 0 0
669 2 1.2898682004029145e+00 5.8987875686894675e+00 1.4923364521091763e+01 0 0 0
670 1 1.8927414295628124e+00 1.1405543008514789e+00 1.9095757223223494e+01 0 0 0
671 2 2.3236855726503856e+00 1.8050868861065914e+00 1.9688760403266912e+01 0 0 0
672 2 2.2929977000108748e+00 1.2452138997368818e+00 1.8170795443951071e+01 0 0 0
676 1 5.8494671344301636e+00 8.4082649691409295e-01 1.8949979897702946e+01 0 0 0
677 2 5.5864582087829797e+00 1.3462396205986815e+00 1.9726901239133731e+01 0 0 0
678 2 6.7947691664227916e+00 1.0447437652341789e+00 1.8737996714634647e+01 0 0 0
810 2 9.7093425948230063e+00 1.0723293084760780e+01 1.7914366622826073e+01 0 0 0
442 1 1.5779328407088966e+00 1.0749276518395094e+01 1.0810958329700734e+01 0 0 0
681 2 1.2276743762151543e+00 1.0053255591855255e+00 1.5774325934316897e+01 0 0 0
682 1 5.3598584715705533e+00 2.6038374229947103e+00 1.4282595284433150e+01 0 0 0
683 2 5.6165344906837369e+00 3.5159728942410888e+00 1.4043701286686606e+01 0 0 0
684 2 5.6235781655605459e+00 2.0020259835023908e+00 1.3517824530655433e+01 0 0 0
685 1 9.1363946431581038e+00 2.7551562241298329e+00 1.3947648276154172e+01 0 0 0
687 2 9.1199164098530723e+00 2.1325277754959631e+00 1.3173273809126471e+01 0 0 0
694 1 7.9444692803053352e+00 4.3608830268702192e+00 1.7244254316179884e+01 0 0 0
695 2 8.8949834475947966e+00 4.3136368439307207e+00 1.7464069137182278e+01 0 0 0
696 2 7.7741792446883267e+00 3.5531291559199429e+00 1.6735628577812186e+01 0 0 0
703 1 7.1820479664395487e+00 6.0324513083408737e+00 1.5139170124549000e+01 0 0 0
704 2 7.4514393068557441e+00 5.4612008840160282e+00 1.5874052084446046e+01 0 0 0
705 2 6.2513213010637765e+00 6.2049219922535785e+00 1.5307369618236827e+01 0 0 0
706 1 8.5005077144333931e+00 9.5845316847687090e-01 1.8802348401102599e+01 0 0 0
707 2 9.0926802009803360e+00 9.0846042807328209e-01 1.8045870456835956e+01 0 0 0
708 2 8.8313785518812367e+00 2.5368934479077748e-01 1.9352401445345585e+01 0 0 0
715 1 7.3935460330947933e+00 1.9995214165669664e+00 1.5920258558059494e+01 0 0 0