LAMMPS data file via write_data, version 15 Apr 2020, timestep = 0

1944 atoms
2 atom types

-2.6825702662033990e-02 4.0008930702661601e+01 xlo xhi
1.5925905558923859e-01 1.9831793944410727e+01 ylo yhi
2.0982503090654880e-01 2.0590946969093068e+01 zlo zhi
4.0093828734854651e-03 -4.6133657694483274e-04 1.3415618724634585e-03 xy xz yz

Masses

1 16
2 2

Atoms # atomic

491 2 6.2490724207194193e+00 2.7027553714751353e+00 6.5150505710326030e+00 0 1 0
1160 2 1.1789073341499574e+01 1.8054122786834991e+01 6.3101203083761108e+00 0 0 0
90 2 1.2504273593718786e+01 1.0007600582865525e+01 5.4364022503464060e+00 0 0 0
905 2 1.4884449745036793e+01 4.1640563837021087e+00 5.0979009679803378e+00 0 0 0
1182 2 1.7658643199030891e+01 6.1117197915022836e-01 9.3325767405217430e+00 0 1 0
1519 1 1.5758613713937072e+01 6.0720289252437931e+00 1.0384833858276597e+01 0 0 1
449 2 1.2450439811639669e+01 5.8893690551788103e-01 4.3128583446092952e+00 0 1 0
705 2 5.0381958941703555e+00 1.9532282379958314e+01 1.0042720210279247e+01 0 0 -1
725 2 1.8190259319701717e+01 2.1917443603844240e+00 7.4888508753794305e+00 0 0 0
1783 1 6.6681337314316647e+00 5.0315262500087243e+00 8.5919262835698333e+00 0 1 0
672 2 6.4049915638108716e+00 1.6430905619248687e+01 1.9491338205204243e+00 0 -1 0
535 1 1.6941475710297585e+01 1.6758216505051866e+01 5.7066281884815355e+00 0 0 0
1313 2 1.0242497290531429e+00 5.4095181457799049e+00 3.4806947962062673e+00 0 0 1
100 1 1.9706911883129290e+01 1.9551493271487466e+01 5.2995695268102905e+00 0 -1 0
481 1 1.2781871014934882e+01 1.5468079593576881e+01 6.5751165657773178e+00 0 0 0
1731 2 6.0312498119972355e+00 2.6133258251212106e+00 1.2259355746112313e+00 0 1 0
1135 1 5.4761845374334515e+00 1.0918472432069445e+01 3.1475348165738755e+00 0 1 0
1375 1 7.9429312056552410e+00 1.7834177150498402e+01 6.7289024472226178e+00 0 0 1
1804 1 9.5021091265567996e+00 1.7499983970501606e+01 3.6535993006040663e+00 0 0 1
286 1 1.5188837207110677e+01 8.7128504922135210e+00 4.6266808894398032e-01 0 0 0
1559 2 1.4404705172653996e+01 1.8933154256941517e+01 5.2960579121962299e+00 0 0 1
437 2 7.4432916481869844e+00 4.9745753433246964e+00 2.0028768056847639e+00 0 0 0
1527 2 7.7043968142832124e+00 1.4671748999581373e+01 5.3068735686015129e+00 0 0 1
467 2 1.3061763262837765e+01 3.4512627678036328e-01 7.2268750837367559e+00 0 1 0
717 2 1.7496152722768286e+01 3.3384919917086244e+00 7.9824384272215088e-01 0 0 1
722 2 1.0650478448972951e+01 1.2473416292157770e+01 3.7617432961540692e-01 0 0 0
1323 2 3.8830171803179621e+00 1.6556089219575274e+01 6.8601654335520568e+00 0 0 0
1158 2 1.3245448366921641e+01 8.9248935542462711e+00 7.5491303374267886e+00 0 0 0
939 2 3.9196777597973949e+00 9.3111237740116053e+00 1.0786797704693931e+00 0 0 0
749 2 1.7593035776283639e+01 5.3546659480151675e+00 3.4600218956081079e+00 0 0 1
236 2 1.1732379387616890e+01 1.3011587965723352e+01 2.2502852236344482e+00 0 0 0
891 2 3.6770221478248164e+00 1.2543506292521945e+01 1.0746702735591711e+00 0 0 0
1786 1 3.2163318688868618e+00 1.7767183160040467e+01 5.7170751622373421e+00 0 0 1
678 2 1.4469949548649799e+00 9.3063425837241862e+00 1.8242420263783368e+00 0 0 0
1606 1 1.0617087361659786e+01 7.0801066798412089e+00 7.2032444295922504e+00 0 -1 0
1825 1 1.8710586003457092e+01 4.1784892051916189e-01 6.4718596721954968e-01 0 1 1
954 2 1.3737038709482624e+01 1.3424127200726073e+01 2.3214756663989600e+00 0 0 1
689 2 1.4118479659694412e+01 1.6782893948867198e+01 2.0263774233835110e+00 0 -1 0
1356 2 2.1653751087722308e+00 1.6335421499655245e+00 5.8573533526912258e-01 0 0 2
1785 2 6.6270194898257806e+00 6.0203398793265324e+00 8.3677002238133475e+00 0 0 0
1098 2 5.7828174459147172e+00 8.7747050160296940e+00 5.8221971521744917e+00 0 1 0
966 2 1.0267830991673717e+01 2.1424561564941547e-01 9.7768628461639331e+00 0 1 0
906 2 1.6331750411596214e+01 4.2869559385369751e+00 5.0813207542231815e+00 0 0 0
474 2 9.7350956028713664e+00 4.6992912167186454e+00 7.4171620709272290e-01 0 1 0
713 2 4.1960146973258254e+00 3.8987108380013029e+00 2.5394333523249313e+00 0 0 1
1306 1 7.2565531214297323e+00 1.9830773304914584e+00 4.0378099332047919e+00 0 0 1
486 2 9.5092289494636741e+00 7.9225933849033181e+00 4.0025170592515966e+00 0 0 0
518 2 1.9679029683445712e+01 1.6027198025351403e+01 7.2362626273116994e+00 0 0 0
47 2 5.4383841888632309e+00 1.2561483229613318e+01 5.5201782074191206e+00 0 -1 0
305 2 9.8069934308813096e+00 1.5682048332649225e+01 8.4241327838701014e+00 0 0 1
1803 2 1.2895896882574093e+01 4.9657310095638509e+00 7.4951842223081195e+00 0 1 1
650 2 5.8100725556766823e+00 1.5630337210017272e+01 6.8393854926598046e+00 0 -1 0
898 1 3.8351877117131061e+00 7.1425765739542983e+00 3.4610715706470310e+00 0 0 0
726 2 1.7818965822304989e+01 3.5198853592358268e+00 8.2730701230434960e+00 0 0 0
1814 2 1.7597788914026324e+01 6.1194728001676140e+00 3.9573549278474501e-01 0 1 1
1583 2 9.7044694954800654e+00 1.0381398991937218e+01 7.5773316678543114e+00 0 0 0
703 1 5.1261392462458080e+00 1.8745091519508627e+01 9.3863765636290513e+00 0 0 -1
1561 1 2.3876277639356767e+00 2.7058035788571377e+00 7.7792599025201783e+00 0 1 0
218 2 1.0866876534929425e+01 8.8875386530736691e+00 9.6827626868428336e+00 0 0 0
1560 2 1.3964946563696449e+01 1.8366024119588403e+01 3.9876868007001836e+00 0 0 1
443 2 5.8898123620780822e+00 5.2665831852224745e+00 5.2603896692955088e+00 0 1 0
1372 1 7.5021053568734111e+00 3.7742559263589830e+00 9.7881734837988421e-01 0 0 1
1128 2 1.0126864689477348e+01 3.1761477915516618e+00 6.8670966405966984e+00 0 1 1
896 2 8.5430393413440058e+00 5.0487878632896450e+00 8.8143930885347341e+00 0 0 0
712 1 3.9082657026568981e+00 4.7656772448889972e+00 2.0956295006555203e+00 0 0 1
1341 2 1.4187387046728361e+01 1.2033355915147091e+01 8.4134468221459251e+00 0 0 1
1543 1 1.8375057136191792e+00 1.2621437161888093e+01 6.0574761405237654e+00 0 0 0
469 1 1.3956946080817357e+01 1.5260134355047468e+01 8.9182569840103341e+00 0 0 -1
302 2 1.5252378617298067e+01 1.8195716409318980e+00 8.5457184500152348e+00 0 0 -1
662 2 2.0755799986147305e-01 1.6575896834102930e+00 2.8015072592311685e+00 0 0 1
60 2 3.7563553478275258e-01 6.1659478906399254e+00 9.2331308015212752e+00 0 0 -1
913 1 1.8008607877966593e+01 1.8043367195929786e+01 3.3872035362408233e+00 0 0 0
235 1 1.1946911162802262e+01 1.3612164605018478e+01 2.9981834647339292e+00 0 0 0
273 2 1.3045709265560109e+01 6.5303812532661443e+00 1.0249921911518041e+00 0 0 1
1376 2 7.4241531178253322e+00 1.8492385588963881e+01 6.2121252965670228e+00 0 0 1
1084 1 4.2576731130267582e+00 9.6078015021563576e+00 5.5287732905296858e+00 0 0 0
483 2 1.3512355654378830e+01 1.5353823310866920e+01 5.9111266069948218e+00 0 0 0
49 1 8.6766439053630169e+00 1.9528615231839595e+01 2.2208820715675781e+00 0 -1 0
269 2 1.9118614753950286e+01 1.2594091339808594e+01 5.1307250331544072e+00 0 0 0
1121 2 1.2284418146015364e+01 1.6467321463381360e+01 2.4762498943576094e+00 0 0 0
750 2 1.7830000180918827e+01 6.5609526722051834e+00 2.4795220545553027e+00 0 0 1
1137 2 5.1045960600991265e+00 1.0555350165935311e+01 3.9698587212190222e+00 0 1 0
88 1 1.2756499115469742e+01 1.0311666783594502e+01 4.4796084387134494e+00 0 0 0
736 1 1.6839607896306504e+01 1.0410868826182714e+01 4.1092901405562037e+00 0 0 0
7 1 2.4387832125560777e-01 1.3233677885261464e+01 8.2868443772091904e+00 0 -1 0
301 1 1.5743978688816359e+01 1.4706244468464740e+00 9.3346305338915592e+00 0 0 -1
715 1 1.8188771008658971e+01 2.9632457685945823e+00 1.3200544497553244e+00 0 0 1
1324 1 1.4306923868147406e+01 1.7919761651160144e+01 9.4680901654555321e+00 0 -1 0
1162 1 1.2301319737198247e+01 1.1167138059638817e+00 1.3089775315998824e+00 0 1 1
1366 1 1.8484399138257089e+01 1.6161665828433996e+01 1.6676449476393678e+00 0 0 1
1316 2 1.3310569216316976e+00 1.5796145414204243e+01 7.5855124943065881e+00 0 -1 0
226 1 5.4025765127209668e-01 1.2717577176213718e+01 2.1788154568199625e+00 0 0 0
1322 2 3.9364512371783498e+00 1.6143404123732424e+01 8.3440399001388776e+00 0 0 1
492 2 7.4223888491720444e+00 3.5527682828883376e+00 5.9399525028351663e+00 0 1 0
1140 2 1.0715718060629429e+01 2.0856497273933576e+00 1.0483468666090952e+00 0 0 1
537 2 1.7862083505329942e+01 1.6585080841483112e+01 6.0770555939755138e+00 0 0 0
573 2 1.9896261152372219e+01 1.5460390128504999e+01 1.8431626671345163e+00 0 0 0
714 2 4.4170294872618063e+00 4.9086282751288435e+00 1.3091894599385998e+00 0 1 1
735 2 1.8017732537248541e+01 1.7732147489796372e+01 1.0033993668721145e+01 0 0 0
1086 2 3.9583701400050226e+00 1.0070515551964053e+01 6.3840305580110899e+00 0 0 0
1300 1 5.1120653222007606e+00 1.2699134231470692e+01 8.3792396400173637e+00 0 0 0
665 2 2.7917427510987971e+00 6.0522316112075529e+00 6.5120836232912094e+00 0 0 0
941 2 1.5188304590192942e+01 1.3081380605367621e+00 4.0238661335713068e+00 0 1 1
1810 1 1.7683710819587109e+01 9.7342388939590165e+00 1.5355453338980773e+00 0 0 1
1093 1 1.5711073803074203e+01 8.0799332606656851e+00 4.8767608056600142e+00 0 2 0
739 1 8.2505765083901714e+00 1.4060045319811111e+01 2.1811715638055809e+00 0 0 1
683 2 4.2450679603193828e+00 1.5852547054109925e+01 3.4347132863054464e+00 0 -1 0
1812 2 1.8594391335995304e+01 9.4481779987823042e+00 1.5730918468196853e+00 0 0 1
251 2 7.3104698337189076e+00 1.1748036763231926e+01 6.0921446691358225e+00 0 -1 0
1792 1 9.3102776568209951e+00 6.8424842689685350e-01 5.6149059426026318e+00 0 0 1
1818 2 1.5360950992531730e+01 4.9855182133732878e-01 1.7159331174463528e+00 0 2 1
1367 2 1.8355061817442170e+01 1.6972497259955485e+01 2.1712230796224583e+00 0 0 1
964 1 1.0625192465323872e+01 7.1221497840234305e-01 8.9668684154103779e+00 0 1 0
1395 2 1.4643737765337871e+01 2.2355793210496482e+00 6.2255682127475387e+00 0 0 0
1806 2 1.0103492067206073e+01 1.7364784814991797e+01 4.4327832391191571e+00 0 0 1
1771 1 1.3020267866419713e+01 7.7016585662730357e+00 4.3584809466985561e+00 0 0 0
740 2 8.0244635518636080e+00 1.3127057283093688e+01 2.2131042426538183e+00 0 0 1
1325 2 1.3945974791170949e+01 1.6986143409006228e+01 9.4328383841256453e+00 0 -1 0
276 2 1.0482806430778952e+01 8.8587486480952329e+00 2.0952666914991207e+00 0 0 0
1340 2 1.2838717502715440e+01 1.2488921057730716e+01 9.1047701813286004e+00 0 0 1
742 1 1.5830141719495069e+01 1.1893987773867384e+01 7.2824681991920714e+00 0 -1 0
227 2 5.2515197916724332e-01 1.2107076569710657e+01 2.9669785175693075e+00 0 0 0
1302 2 5.2236115243932693e+00 1.3406141516665944e+01 9.0429126246718941e+00 0 0 0
1562 2 3.2045301209346553e+00 3.0489095932472345e+00 8.2301898369438540e+00 0 1 0
704 2 6.0992348629956821e+00 1.8577490183520911e+01 9.3319716417178817e+00 0 0 -1
1525 1 8.4073161790643116e+00 1.4180627505745358e+01 4.8018554870202781e+00 0 0 1
64 1 1.6242757920981649e+01 9.1196782921806250e+00 7.3739301788919969e+00 0 0 -1
900 2 3.7017254796162407e+00 6.3064489764827067e+00 2.9088207663363135e+00 0 0 0
485 2 9.0572978829113158e+00 6.8607493336048693e+00 2.9794530569541204e+00 0 0 0
454 1 3.4859081214701733e+00 1.9468672301949709e+01 7.5615594644607960e+00 0 0 0
971 2 1.5273370043407448e+01 1.2293702489760303e+01 5.6011216784408733e+00 0 0 0
1618 1 1.5380703042705553e+01 1.8786960585510652e+01 7.1323307130041949e+00 0 -1 0
701 2 9.7205796621639546e+00 1.0281777671547694e+01 5.1446754911457351e+00 0 0 -1
1339 1 1.3685943599106475e+01 1.2064488772653203e+01 9.2527968353749213e+00 0 0 1
1813 1 1.8340079402728264e+01 6.7343472904996959e+00 7.9921017794634730e-01 0 1 1
229 1 1.3997153644465490e+00 1.5149228841810482e+01 5.8075890505953733e+00 0 0 0
1155 2 1.7628044815363850e+01 1.3943731227979848e+01 8.0256101901305392e+00 0 1 0
470 2 1.3381514801449734e+01 1.4580387681316761e+01 9.2992937685302550e+00 0 0 -1
1729 1 5.3377145793501697e+00 1.9622549010684167e+00 1.1674430446556321e+00 0 1 0
685 1 5.6471980342798442e+00 1.8827979738986954e+01 4.7015406701948885e+00 0 0 0
270 2 1.8847977346706454e+01 1.4152758504359467e+01 5.3174933751475635e+00 0 0 0
873 2 5.6817776506824158e+00 1.3346209550059395e+01 1.1179324580395245e+00 0 0 0
710 2 1.9548648661743670e+01 5.2612353614261229e+00 5.7534127741904575e+00 0 0 0
1096 1 6.6503664433656144e+00 8.3121807291717431e+00 5.9275855974538825e+00 0 1 0
12 2 3.6823810016384961e-01 1.8917186403421450e+01 2.9034433551541130e+00 0 -1 0
677 2 6.2943760996011044e-01 8.0896036237947158e+00 2.1087830391837508e+00 0 0 0
743 2 1.5827537826013822e+01 1.0919909890754665e+01 7.1789361968955605e+00 0 -1 0
684 2 4.7833510062458506e+00 1.4439754915023288e+01 3.0084389149397608e+00 0 -1 0
287 2 1.6022144446423447e+01 8.9367750255816532e+00 8.6570594693383252e-01 0 0 1
1120 1 1.1392013630130442e+01 1.6195383887056977e+01 2.1250104306208355e+00 0 0 0
748 1 1.7498925369719331e+01 6.3227288870252831e+00 3.3886259308988316e+00 0 0 1
676 1 6.5904987370912405e-01 9.0368135792717990e+00 2.3536890924526181e+00 0 0 0
1555 1 8.3801795741180332e+00 7.6605514452146171e+00 5.5579692366056510e-01 0 0 1
225 2 3.5479345869145935e+00 1.3196407553751284e+00 3.5042985510166660e+00 0 1 0
1794 2 9.3354074289300577e+00 1.9411967132829584e+01 5.8396338205630931e+00 0 -1 1
484 1 9.8210948786352006e+00 7.5109132221596360e+00 3.2297339729301529e+00 0 0 0
1761 2 8.7882230582077270e+00 9.3663341092785313e+00 2.7933916440572704e-01 1 0 1
258 2 8.7176981819138391e+00 1.1077456745756644e+01 3.1009608740477548e+00 0 0 1
442 1 6.1430738369640734e+00 6.0041321521337281e+00 4.6709362366071865e+00 0 1 0
219 2 9.2992790729708474e+00 9.1345547886916467e+00 9.9749248543694211e+00 0 0 0
468 2 1.3163188516803400e+01 1.8875936846079799e+01 8.2828529869306831e+00 0 0 1
250 1 7.0933619133205719e+00 1.1880418025646735e+01 5.1677169403656205e+00 0 -1 0
479 2 1.6720930575447316e+01 1.8449168136453810e+01 2.2420956145459603e+00 0 0 -1
255 2 2.4897333857830279e+00 1.0895098061121178e+01 4.5998491643681300e-01 0 0 1
303 2 1.6103520501238680e+01 2.1751373442280553e+00 9.9039083591655199e+00 0 0 -1
11 2 7.8284687739147374e-01 1.9670107443835985e+01 1.5967435654968278e+00 0 -1 0
895 1 9.5787172721419580e+00 5.0480381065682929e+00 8.9159620417195899e+00 0 0 0
711 2 1.9349667746904764e+01 4.0117039070745300e+00 6.6247767158338053e+00 0 0 0
1159 1 1.1208780051288270e+01 1.7411792902791472e+01 5.7875264342009380e+00 0 0 0
1526 2 8.3495103964340380e+00 1.4373830092813169e+01 3.8656338677783122e+00 0 0 1
686 2 5.6800679536496137e+00 1.9254792192470411e+01 3.8156746807964725e+00 0 0 0
940 1 1.5819552846925198e+01 1.7953810436748341e+00 4.5376144740528943e+00 0 1 1
74 2 1.7915976096972525e+01 7.1399409913411311e+00 8.9720143715348968e+00 0 0 0
744 2 1.6765604739706991e+01 1.2199018118808437e+01 7.3851916403314863e+00 0 -1 0
1139 2 9.4578633016483487e+00 1.3581891430699149e+00 1.2726862279610631e+00 0 0 1
1822 1 1.7404746140429538e+01 1.2272837444827905e+01 3.0209945588466514e-01 0 0 1
1620 2 1.6098054873239963e+01 1.9440478853756012e+01 7.1587930734050262e+00 0 -1 0
73 1 1.8083934316597205e+01 6.7194798204705553e+00 8.1119979024825497e+00 0 0 0
1557 2 9.0614055649140255e+00 6.9824763137682693e+00 4.3086101427315326e-01 0 0 1
920 2 2.0294552213104602e+00 1.6333437086000333e+00 6.0031329646651823e+00 0 1 0
1748 2 7.4554530634762062e-01 1.0276916166734496e+01 3.6053349637891299e+00 0 -1 1
455 2 3.0120652296705148e+00 5.6409887195545472e-01 7.8123605445637114e+00 0 1 0
94 1 7.5557368582597579e+00 1.1824147086898440e+01 7.9747829921723259e+00 0 0 0
919 1 1.5829829807280262e+00 9.2607014292300693e-01 5.4871077650623583e+00 0 1 0
526 1 1.7087621649905589e+01 1.3753210572099070e+01 2.7407503588681856e+00 0 0 0
933 2 1.4968427451256611e+01 1.4194074658419067e+01 4.7195070975051454e+00 0 0 0
1309 1 1.6626548389848264e+01 1.4884913212815489e+01 9.1736322645687665e+00 0 0 0
320 2 6.4887749544733255e+00 1.7347619787518767e+01 4.1132427842746990e+00 0 -1 1
230 2 1.6107961602409411e+00 1.5501700926527676e+01 4.9817068476814974e+00 0 0 0
462 2 5.1151346668050115e+00 4.2900728016367591e+00 9.0841498886442000e+00 0 1 0
1776 2 3.2247960180991813e+00 1.8106966101773381e+01 3.0419997130599992e+00 0 0 1
1314 2 5.3309581145762552e-01 3.9923890076038950e+00 3.6597659315935132e+00 0 0 1
1085 2 3.4006827642375388e+00 9.3340174796148698e+00 5.1321964664359179e+00 0 0 0
1832 2 8.2531638025005734e+00 1.7735942431400620e+01 9.8892132140247195e+00 0 -1 0
478 1 1.6422746066438162e+01 1.8795377759129764e+01 1.3517287097326476e+00 0 0 -1
666 2 2.1400259192091577e+00 7.4756871199250705e+00 6.1518240997320017e+00 0 0 0
777 2 1.9911824170056743e+01 5.8496721735676696e+00 8.7678885043866686e+00 0 0 0
464 2 1.3178523709962731e+01 4.6358460402832735e+00 1.2990789172382025e+00 0 0 -1
893 2 2.4506845728266953e+00 4.6426638000677487e+00 5.0540770486657687e+00 0 0 0
1397 2 1.9396760881288408e+01 9.6306799055688526e+00 8.6321494332574709e+00 0 0 1
19 1 1.9673739128107244e+00 8.4407570052311662e+00 4.7711169932679125e+00 0 0 0
1180 1 1.8286308675568861e+01 1.9608213516240632e+01 9.6188982568413053e+00 0 0 0
1359 2 1.0910928530882796e+01 1.3917042508809944e+01 8.0600647084879427e+00 0 0 0
721 1 1.1361967442197418e+01 1.2006407341041355e+01 7.8775294911029670e-01 0 0 0
1608 2 1.0359440868039441e+01 6.4099320662527912e+00 7.8685100935079832e+00 0 -1 0
970 1 1.4997652656778751e+01 1.2470711649738501e+01 4.6447784191808088e+00 0 0 0
675 2 5.5162466202660223e+00 7.9287357433395425e+00 8.9512479588649363e+00 0 -1 0
489 2 1.4597273009166511e+01 6.3614610605404280e+00 6.3687620501903703e+00 0 1 -1
1541 2 2.6807044983029220e+00 3.9643580074985563e+00 1.3618343560388311e+00 0 0 1
30 2 4.5803478207159394e+00 1.7435948723672691e+01 1.0046531470651066e+01 0 -1 0
1163 2 1.2358158402521127e+01 4.5835765786270666e-01 6.0910922230494136e-01 0 1 1
921 2 6.3055967964105075e-01 1.1497759582044864e+00 5.2753705980535086e+00 0 1 0
876 2 9.8204629969162642e+00 8.1796101580237544e+00 6.4543517977432012e+00 0 0 0
436 1 7.6241087342982352e+00 5.8901352365038893e+00 2.5114032302124785e+00 0 0 0
76 1 1.7868601268101990e+01 3.5824012189008481e+00 3.8453884955538689e+00 0 0 0
1126 1 1.0535085005905708e+01 3.0586553095497688e+00 7.7302258817690843e+00 0 1 1
673 1 6.4977738592546839e+00 7.7682004683997015e+00 8.7360942309351284e+00 0 -1 0
702 2 1.0177193564421851e+01 1.1789850049898487e+01 4.9888113032762629e+00 0 0 -1
506 2 7.4101114920115805e+00 2.8892561690896099e+00 1.0080574146439050e+01 0 0 0
536 2 1.6476421150595502e+01 1.7307055595325359e+01 6.3992831412401232e+00 0 0 0
914 2 1.7713049633979207e+01 1.7683514793953847e+01 4.2434868914111297e+00 0 0 0
223 1 3.1327654492484016e+00 4.4298622027817619e-01 3.3527581304625778e+00 0 1 0
903 2 1.4470146472426645e+01 3.1124779346968707e+00 2.3888622713096259e+00 0 1 0
495 2 3.5994044546729005e+00 7.9800942378034545e+00 1.0363921282765379e+01 0 0 -1
257 2 7.2215440290076947e+00 1.1194312846630471e+01 2.9195196364970117e+00 0 0 1
738 2 1.6161683482448442e+01 1.1107032139607714e+01 4.1674704427349276e+00 0 0 0
682 1 4.6134690913585024e+00 1.5036769569358656e+01 3.7712729168467725e+00 0 -1 0
1370 2 1.2563712047556560e+01 2.7405611302748851e+00 4.6874508258504131e+00 0 0 1
463 1 1.2742530555435188e+01 5.0054660615635864e+00 5.1070090578216421e-01 0 0 -1
51 2 9.0298489340227839e+00 1.8811567939402266e+01 2.8790197557276249e+00 0 -1 0
482 2 1.2239019846696975e+01 1.4669521421976576e+01 6.4353474331378706e+00 0 0 0
687 2 4.7155858798685841e+00 1.8665063110660654e+01 4.9558601474702435e+00 0 0 0
737 2 1.6370891107473657e+01 9.5699613557479815e+00 4.3191106285979526e+00 0 0 0
10 1 1.8514095933177779e-02 1.9493687397870580e+01 2.1916250115125693e+00 0 -1 0
901 1 1.4222842354731482e+01 4.0239053816580714e+00 2.3919512236632765e+00 0 1 0
723 2 1.0971060146403763e+01 1.1116094903765203e+01 1.0670535912778629e+00 0 0 0
1127 2 1.0472922694953416e+01 2.1091409515453030e+00 7.9241399318560628e+00 0 1 1
1369 1 1.2944851015269951e+01 3.6078962786260287e+00 4.7543292056271849e+00 0 0 1
1747 1 5.6748951185488739e-01 1.1044299473327319e+01 4.1496374211187899e+00 0 0 1
1793 2 1.0160581270281854e+01 6.9374712072646272e-01 5.0467376821806758e+00 0 0 1
871 1 4.9977924269465035e+00 1.3133649424062060e+01 1.8013203300915330e+00 0 0 0
272 2 1.3965564780916683e+01 7.7844013242679946e+00 1.2882759010626905e+00 0 0 1
671 2 7.0767600941840794e+00 1.5137594837319405e+01 1.4984935496227987e+00 0 -1 0
306 2 1.0908489628616461e+01 1.6586283724998861e+01 7.6762867387925668e+00 0 0 1
1537 1 5.0552277965254022e-01 1.5298968801917049e+01 2.5101526492380080e+00 0 0 1
1122 2 1.0765617810503763e+01 1.6608100178115574e+01 2.7253636274856210e+00 0 0 0
1581 2 9.1825531069692301e-01 1.9450975075151316e+01 8.5632920142840181e+00 0 -1 0
237 2 1.1695977222387649e+01 1.4488977455808330e+01 2.6862170963626633e+00 0 0 0
1544 2 1.4204094656765114e+00 1.1921716303486106e+01 5.5180754585890286e+00 0 0 0
931 1 1.4824576606569254e+01 1.5161668149704537e+01 4.7936189573160108e+00 0 0 0
293 2 1.8259531378435522e+01 1.0677062308704773e+01 5.0526707815711651e+00 0 -1 -1
1368 2 1.8523121466271196e+01 1.6363994381307489e+01 6.8817965456301500e-01 0 0 1
1332 2 1.4967568655536269e+01 7.4902870872640124e+00 9.6838891006509975e+00 0 0 0
1784 2 6.5487679808837536e+00 4.5206643249519978e+00 7.7171081943484863e+00 0 1 0
1125 2 1.8247149695417910e+01 3.3102523863147670e-01 6.1297217972286271e+00 0 1 0
488 2 1.3287817691979141e+01 7.0322134059094648e+00 6.0181138815364763e+00 0 1 -1
1824 2 1.7679795274295579e+01 1.2524920275212482e+01 1.1795931191652631e+00 0 0 1
1161 2 1.1870477898323223e+01 1.6653333413832627e+01 5.8503252214330788e+00 0 0 0
77 2 1.8056747310952698e+01 3.3408488739161961e+00 2.8900378930405655e+00 0 0 0
690 2 1.4387058230168497e+01 1.6208818800690580e+01 3.4435741098833978e+00 0 -1 0
959 2 1.5864999793003172e+01 4.4244807563229109e+00 7.6294459756169344e+00 0 1 0
59 2 1.0189589378865562e+00 6.8101501544338525e+00 7.8064177882383579e+00 0 0 -1
700 1 1.0165292405689140e+01 1.0891755367067873e+01 4.5280473547264846e+00 0 0 -1
466 1 1.2572001929852670e+01 1.9200873918414278e+01 7.5515787659713247e+00 0 0 0
1554 2 9.3078887126544902e+00 3.0340137025965315e+00 4.8373868282561290e+00 0 0 1
231 2 1.4477384514963940e+00 1.4127143196053396e+01 5.7429178895139827e+00 0 0 0
282 2 4.3845719182043501e+00 3.3397030837261510e+00 4.8310032067194131e+00 0 0 0
1153 1 1.8164411537543881e+01 1.3352804032153729e+01 7.4026870986384488e+00 0 1 0
1742 2 4.9027067462368059e+00 1.9343774869503616e+00 1.0160325567717946e+01 0 0 0
688 1 1.3817709016945228e+01 1.6845810086261473e+01 2.9493983292550876e+00 0 -1 0
681 2 1.6709984982026682e-01 1.0306532352019872e+01 8.4117714382087900e+00 0 0 0
268 1 1.9052019779870538e+01 1.3428058965051997e+01 4.6623718736584339e+00 0 0 0
1558 1 1.4043783867758359e+01 1.9231882609863828e+01 4.4421113901073639e+00 0 0 1
716 2 1.8241691131721975e+01 1.9954072646759042e+00 1.1080740657243489e+00 0 0 1
932 2 1.5662361659667393e+01 1.5551089752332382e+01 5.1119116855212097e+00 0 0 0
1535 2 1.0922851617927524e+01 6.1520359439336776e+00 5.6559160055659374e+00 0 -1 0
461 2 3.8775378995368275e+00 4.1712701343475960e+00 1.0080016430204985e+01 0 1 0
1580 2 1.0078466047084502e+00 1.9649232675413714e+01 7.0474009474785788e+00 0 -1 0
1578 2 1.8659361953718619e+01 7.1045634189794589e+00 6.2337916085516110e+00 0 0 1
452 2 2.5664884455553101e+00 1.0711034944009356e+01 8.4015275123968127e+00 0 0 -1
1321 1 4.0272655102667620e+00 1.5772128888110904e+01 7.4773686344939572e+00 0 0 1
1111 1 8.5969145666426083e+00 1.4512609127334906e+01 8.3672690778280963e+00 0 0 0
1540 1 2.0064375452940220e+00 3.4009816311263479e+00 8.3821519868070016e-01 0 0 1
709 1 1.9913571030434596e+01 4.3342947953115685e+00 5.8943862360413517e+00 0 0 0
943 1 1.5276696858081054e+01 1.6518156530086490e+01 5.5442022775641198e-01 0 0 1
944 2 1.5928041134003060e+01 1.7256959582731206e+01 7.7247487812657400e-01 0 0 1
96 2 8.0384521954779871e+00 1.2654280519738700e+01 8.1019644229699121e+00 0 0 0
1536 2 1.1056510660176574e+01 6.1616645322859069e+00 4.0241537261493896e+00 0 -1 0
292 1 1.9116880488387103e+01 1.0850624610018484e+01 5.5396675043814829e+00 0 -1 -1
958 1 1.6510701852217100e+01 4.5871959914113516e+00 8.3134517474853844e+00 0 1 0
490 1 6.5823903692803798e+00 3.6128725438458686e+00 6.3932544281436110e+00 0 1 0
1764 2 1.1304715332459054e+00 6.0386190586215651e+00 1.0075028219582083e+00 0 1 0
1542 2 1.1806570737125188e+00 3.3832928353208631e+00 1.2918762825349752e+00 0 0 1
875 2 8.3866207110640261e+00 8.7352267726643671e+00 6.0532136791980182e+00 0 0 0
654 2 3.4208938540922245e+00 7.5782620250521093e+00 8.1401193758145531e+00 0 0 0
1301 2 4.8151474579045139e+00 1.2978956856185834e+01 7.5093894626677562e+00 0 0 0
1805 2 8.6493940812675465e+00 1.7155818204003779e+01 3.8556827102540030e+00 0 0 1
894 2 3.0671113053823520e+00 4.0676348933587692e+00 6.3666976554368837e+00 0 0 0
31 1 2.1984644229884736e+00 1.5921333824346352e+01 6.3415172371827877e-01 0 -1 0
1377 2 8.0349656053045191e+00 1.8167547542907965e+01 7.6803612134053614e+00 0 0 1
872 2 5.2354711008657269e+00 1.2271555680860962e+01 2.2053671093463532e+00 0 0 0
1831 1 7.8756657640165555e+00 1.8436249561319205e+01 9.3444067191281786e+00 0 -1 0
1826 2 1.9420740289001021e+01 1.9578459639502761e+01 1.0298596986692266e+00 0 0 1
1801 1 1.2840046971275701e+01 4.1480408893621874e+00 8.0480944809539636e+00 0 1 1
233 2 1.3489097105874263e+01 9.1574770755143646e+00 1.0017048270749275e+01 0 0 -1
252 2 7.5941253458474396e+00 1.2725077509943736e+01 5.0498715393105513e+00 0 -1 0
965 2 1.1358673744885294e+01 2.2744165630352081e-01 8.5541415865357315e+00 0 1 0
281 2 5.4783675208784022e+00 2.5249650683011109e+00 3.9877307672113385e+00 0 0 0
78 2 1.8650410562144110e+01 3.5641117969938563e+00 4.4649204260655511e+00 0 0 0
1777 1 7.7840799688298681e+00 1.4413827214905706e+00 9.0972017203080302e+00 0 1 0
66 2 1.6285348943058786e+01 8.6332174691650678e+00 6.5194723511388286e+00 0 0 -1
952 1 1.4476364100798165e+01 1.3302673483925554e+01 1.6235802261703665e+00 0 0 1
1730 2 4.8602358537842720e+00 2.0537964724013236e+00 2.7484204880742913e-01 0 1 0
314 2 1.1328632821149634e+01 1.3613287720642624e+01 4.6067236916899237e+00 0 0 0
1823 2 1.7486996672220940e+01 1.1361054256196367e+01 2.2301865352026623e-01 0 0 1
904 1 1.5594851276398114e+01 4.5146806551057139e+00 5.5938070492760019e+00 0 0 0
1607 2 1.1462783563724511e+01 7.5286796094558737e+00 7.3517478059153252e+00 0 -1 0
667 1 7.0922405169013658e-01 1.7518614439370765e+01 3.8733224731889790e+00 0 0 0
1545 2 2.8023785395813325e+00 1.2673614846038884e+01 5.9769083473993723e+00 1 0 0
1354 1 2.2289299145026158e+00 6.6614266607430550e-01 7.4262427810161347e-01 0 0 2
1331 2 1.5209537072150560e+01 8.6668696510555208e+00 8.6974768136617886e+00 0 0 0
48 2 4.5790711958391723e+00 1.3834385867894238e+01 5.3905619952419572e+00 0 -1 0
1100 2 1.2617485089566546e+01 4.0931617890555589e+00 9.7550085127966941e+00 0 0 0
1136 2 5.2708401115181989e+00 1.0189684404899415e+01 2.5675847893985977e+00 0 1 0
1775 2 3.1325732070940173e+00 1.7011402677183931e+01 1.9226488546814702e+00 0 0 1
942 2 1.6420584141302577e+01 2.3972647219478209e+00 4.0451171150417213e+00 0 1 1
1584 2 1.0514173533536807e+01 1.1435673640912501e+01 8.2777324721111309e+00 0 0 0
46 1 4.5310638891360284e+00 1.2924779956275325e+01 5.7112137765289086e+00 0 -1 0
89 2 1.1828830167543870e+01 1.0613237894417560e+01 4.1540169102066891e+00 0 0 0
1123 1 1.7535256994082520e+01 8.3609838765568234e-01 6.5638511127689405e+00 0 1 0
450 2 1.1755877995886408e+01 1.0492309221910363e+00 3.1029535958835708e+00 0 1 0
263 2 9.4633008163127919e+00 1.8497649272115169e+01 1.0421525296475904e+00 0 0 0
1774 1 3.7084150632709396e+00 1.7388025178173656e+01 2.6279978067539420e+00 0 0 1
1534 1 1.1124663736973561e+01 5.6056635380446433e+00 4.8091152578520751e+00 0 -1 0
253 1 2.4679199661939797e+00 9.9269593615617424e+00 6.4042430040988485e-01 0 0 0
444 2 6.4412451650614724e+00 6.7024414681740430e+00 5.2803010178302499e+00 0 1 0
275 2 1.1803011308973025e+01 8.3387449514640650e+00 1.4788585379509145e+00 0 0 0
912 2 7.8781565928786019e+00 1.0722463350451916e+01 9.2360579182773819e+00 0 0 0
897 2 9.8995009539585599e+00 4.1228505226813894e+00 8.7369476451644470e+00 1 0 0
1817 2 1.5143939634071213e+01 1.6939146082529124e+00 8.5908018869846914e-01 0 2 1
1579 1 4.6584068758685715e-01 1.9171167874259378e+01 7.7071790575848862e+00 0 -1 0
972 2 1.4271774938460622e+01 1.1798711748032193e+01 4.5778311627648423e+00 0 0 0
670 1 6.5859957075555009e+00 1.5930992125020103e+01 1.1444491439795093e+00 0 -1 0
938 2 4.3672162254064899e+00 8.2580866555278405e+00 2.0810973855282331e+00 0 0 0
50 2 7.7070880211198647e+00 1.9366597406484821e+01 2.1371319963365827e+00 0 -1 0
1358 2 1.0798838977197489e+01 1.3406532760282733e+01 9.5155798570281309e+00 0 0 -1
21 2 9.8037316871213420e-01 8.3701497630246831e+00 4.4973881985847761e+00 0 0 0
453 2 4.0455602285291477e+00 1.1355119037023439e+01 8.4907518674909532e+00 0 -1 -1
1157 2 1.1916948265947040e+01 9.7910331015009220e+00 7.5808001715593551e+00 0 0 0
935 2 1.4353688308921816e+01 1.1751887806495043e+01 7.3461328597888442e-01 0 1 1
65 2 1.7162761758339713e+01 9.1561274372845389e+00 7.7309105214453382e+00 0 0 -1
456 2 4.1147495270215977e+00 1.9209950949978627e+01 8.3439118014058185e+00 0 0 0
527 2 1.7717362422481376e+01 1.3549623087299906e+01 3.4587862099123914e+00 0 0 0
2 2 1.1437550969577093e+00 1.6928775104357541e+01 9.8995743436846730e+00 0 -1 0
294 2 1.8926902038113212e+01 1.0664787456382186e+01 6.4702199376147034e+00 0 -1 -1
1773 2 1.3052833765454178e+01 7.4180605309385292e+00 3.4228170504005204e+00 0 0 0
1138 1 9.7781217579020652e+00 2.1899419197262824e+00 8.9492590356478730e-01 0 0 1
1563 2 1.6376367948369419e+00 2.9333848926284500e+00 8.3520071423421189e+00 0 1 0
315 2 1.0132421033572813e+01 1.3978321816736011e+01 5.3723993819983411e+00 0 0 0
1568 2 5.4929717370912359e+00 5.7066318345878841e-01 1.6941236071234456e+00 0 0 1
319 1 6.8614447369785960e+00 1.6553998429457071e+01 3.6837128662069016e+00 0 -1 1
1310 2 1.6937423463149926e+01 1.5722766200646040e+01 9.5889508704239610e+00 0 0 0
1619 2 1.5260682329733450e+01 1.8433190554015226e+01 8.0567087646363298e+00 0 -1 0