LAMMPS data file via write_data, version 15 Apr 2020, timestep = 901000

2016 atoms
2 atom types

0.0000000000000000e+00 1.8299208000000000e+01 xlo xhi
-1.3035607585393620e+00 4.5774494764530964e+01 ylo yhi
0.0000000000000000e+00 1.9004056500000001e+01 zlo zhi
-9.2251484992433234e-04 -6.7905657899999996e+00 -1.6540480099999999e-04 xy xz yz

Masses

1 16
2 2

Atoms # atomic

80 2 1.1079300912468135e+01 3.3215267291775934e+00 1.2685534916550019e+01 -2 0 0
498 2 1.4955435054416267e+01 7.0701058987348286e+00 3.5200250403705442e+00 -3 0 2
716 2 1.6260087767768020e+01 1.5221973774743911e+00 2.5692376830594448e+00 1 0 5
544 1 1.5555833729274964e+00 -7.5201643316951949e-01 6.2279957924321039e+00 0 0 2
326 2 1.3117736719789914e+01 4.6124315483473577e+00 5.1112190073649284e+00 1 0 3
431 2 3.9088020926905402e+00 9.0697639997695756e+00 1.6494346137878900e+01 0 0 1
82 1 7.7149994454246826e+00 -3.1099161246300844e-01 1.6321973217482981e+01 0 0 -2
567 2 6.3121835597981040e+00 7.1353664576285158e+00 1.7324499606689685e+01 -2 0 -2
647 2 -6.2860423662252618e-01 3.5643397155800391e+00 1.9002194537609924e+01 -2 0 2
600 2 4.3485670386600610e+00 1.4953143631644084e-01 3.7366777428898295e+00 -1 0 4
546 2 6.4939344734035975e-01 -4.5404333062771118e-01 6.4579699074539718e+00 0 0 2
753 2 1.4559896527914024e+01 7.7507253121440325e+00 9.9500833545327989e+00 0 0 -1
403 1 3.4928175227971123e+00 1.3754164135794782e+00 6.2664471117763849e+00 1 0 0
967 1 7.8743312971784309e+00 -8.7711132296276584e-01 1.1500712280158131e+01 0 0 4
562 1 1.3293859587298009e+01 7.2752852567579236e+00 1.3413610789493267e+01 -2 0 0
89 2 -3.9726576252567085e+00 5.6404841046306968e+00 1.4512293783106539e+01 -3 0 -1
228 2 1.2255756905764564e+01 2.7695560310321845e+00 7.8213432323908547e+00 1 0 0
879 2 7.8772059404384391e+00 2.9156373591633269e+00 1.7735047416274522e+01 0 0 2
226 1 1.2677783581563526e+01 3.4318497144921700e+00 8.4374539068443664e+00 1 0 0
52 1 4.2983004342926652e+00 6.8851282792462101e+00 4.2214346180726894e+00 1 0 4
305 2 8.9059162576715849e+00 3.1133051256672184e-01 3.9484470848444606e+00 1 0 1
818 2 -3.6710055471592185e-01 8.9611001520010092e-01 3.7618234643110062e+00 0 0 -1
68 2 1.2247052492394493e+01 1.4757558112455480e+00 1.6555186577572300e+01 0 0 3
33 2 2.7202403602418226e+00 1.0041991899899356e+00 1.8747843295464264e+01 1 0 -1
218 2 1.1161859011501061e+01 -9.0909192297815489e-01 5.6291823011246827e+00 -1 0 3
1037 2 7.8231580318049971e+00 4.6062753911713763e+00 1.4966133803595966e+01 -1 0 -1
759 2 1.1176002289510262e+01 4.5325993110119844e+00 6.2072202647675976e+00 -5 0 -1
777 2 8.4285655953067806e+00 9.0713469617136315e+00 1.1743026546150649e+01 -2 0 2
638 2 5.1869393048081358e+00 1.8095135876338277e+00 1.8351179036377026e+01 2 0 3
217 1 1.1331954716793026e+01 -5.7910383572236468e-01 6.5899199780908368e+00 -1 0 3
335 2 3.4179187998557792e+00 -3.5898102127283960e-01 1.3591121361306772e+01 -2 0 2
852 2 -2.0094782312418524e+00 7.4947941395576141e+00 1.1606960598970996e+01 -1 0 2
357 2 -4.5398786277569352e+00 -1.0112489441164951e+00 1.6830256903083704e+01 -1 0 1
941 2 4.9477031442660611e+00 8.5756237539598423e+00 1.8726024651282113e+01 2 0 5
379 1 2.2056007150870762e+00 -1.6094412690806981e-01 9.6036992946330955e+00 2 0 3
327 2 1.3502955918889686e+01 3.9502202492030873e+00 3.7216028742844465e+00 1 0 3
1007 2 -5.1379103984001073e+00 5.7319994662329767e+00 1.7919514000313903e+01 0 0 0
637 1 6.0719371936461819e+00 1.8533477639034412e+00 1.8001594253397315e+01 2 0 3
530 2 2.4213950298230751e+00 9.0275840652830848e+00 1.2149070345150044e+01 -2 0 2
401 2 1.3831688869464525e+01 5.0541864858571275e+00 7.7148031650846534e+00 2 0 2
471 2 -3.1540420987219608e+00 7.8481034460102128e-02 1.3043722976142291e+01 -2 0 1
361 1 1.0923182694435264e+01 9.1693637725877668e+00 1.5549010898176249e+01 1 0 0
715 1 1.5949090268716294e+01 2.1833904230932957e+00 1.9309456999837562e+00 1 0 5
321 2 1.2920588643010227e+01 1.7868606663260440e+00 3.0700108727022513e+00 -1 0 1
1004 2 9.2888971893473560e+00 8.9762925645379479e+00 2.4876097392311181e+00 3 0 0
693 2 1.4910651030761741e+00 3.2093684157877478e-01 1.3104265120332355e+01 -1 0 1
227 2 1.3189814165728073e+01 2.9561128621638701e+00 9.0849083645481254e+00 1 0 0
639 2 6.0125052209688130e+00 2.0338327064987305e+00 1.7040646944864850e+01 1 0 3
787 1 4.4278325953773869e+00 8.9799851123896755e+00 8.0257422523723285e+00 2 0 -1
803 2 1.4919476280539804e+01 -1.0744624862389527e+00 3.6187170040371992e+00 -1 0 1
954 2 1.1267498896615574e+01 5.5657889623730137e+00 4.1280304856110002e+00 -1 0 4
16 1 8.2030565218205780e+00 -1.1177993398226209e+00 7.0744752427708031e+00 0 0 3
864 2 1.2837774806630181e+01 1.0156402083704561e+01 5.8386469231521758e+00 -5 0 2
430 1 3.2102997197128644e+00 9.3291870328818796e+00 1.5817299774444210e+01 0 0 1
160 1 -2.8783805386962058e-01 7.7123745027331836e+00 1.8244905734932111e+01 -1 0 1
220 1 2.4652448080629874e+00 4.5544499308992776e+00 1.8391062608021787e+01 2 0 0
950 2 9.0617257504239141e+00 -3.9901517376113749e-01 1.8602109017592674e+01 2 0 3
65 2 7.1755569350335566e+00 7.3517480484825004e-01 1.0302938055156062e+01 -2 0 2
810 2 -3.1729792316789287e+00 3.4498425987919541e+00 1.5676219955796725e+01 1 0 1
436 1 5.0197766261792651e+00 5.2888419984751840e+00 8.1505179074717695e+00 0 0 4
91 1 1.6581465185215787e+01 4.5437580842307010e+00 4.7502973946734617e+00 4 0 1
965 2 1.0010668829258091e+01 8.1412069281089217e+00 6.8715668795427751e+00 0 0 4
707 2 1.0585464087174298e+01 7.6323121729180432e+00 1.4934883114944867e+01 2 0 3
400 1 1.4626847098033451e+01 5.6418340658603867e+00 7.6894667700097221e+00 2 0 2
363 2 1.1603095882472889e+01 9.4578710528050092e+00 1.6198727272346051e+01 1 0 0
989 2 1.3476949531319267e+01 3.8318785472184915e+00 1.3270716855146345e+01 3 0 2
63 2 9.4445049894170943e+00 3.9509332178614178e+00 1.3631087521268089e+01 1 0 3
947 2 1.6389996399597928e-01 2.4565795324940041e+00 5.2542027207013700e+00 1 0 1
646 1 1.3889351266610905e-01 2.9531710632109531e+00 1.8907426485943603e+01 -2 0 2
183 2 1.4957657806051635e+01 6.2133750666344589e+00 9.4862229308173462e-01 1 0 5
263 2 -4.9916423161153531e+00 9.0278842959307362e+00 1.7632875067713837e+01 1 0 1
88 1 -3.6645550039780357e+00 5.2974239814030089e+00 1.5380780706664366e+01 -3 0 -1
525 2 6.5873139401567924e+00 7.4492666201089239e+00 1.0131185702263437e+01 0 0 1
1086 2 -1.6974244148425091e+00 3.8419993866034741e+00 9.8975062055049463e+00 0 0 1
700 1 6.9669134690565429e+00 3.7218791854104936e+00 1.2151073518521610e+01 3 0 2
734 2 1.1690755274485580e+00 -5.9073541767693749e-02 1.6842609876115884e+00 1 0 4
819 2 1.6780547470894270e+01 1.6319377517826972e-02 4.0794717025162113e+00 -1 0 -1
272 2 1.1360167385340002e+01 6.3435252964376039e+00 1.8549005343732833e+01 -3 0 0
523 1 7.1988454321971815e+00 7.0925006337464200e+00 9.4695465338636406e+00 0 0 1
838 1 4.7133406946691254e+00 -7.2114818785667878e-01 8.6765482119091430e+00 1 0 -3
69 2 -5.4500404386957229e+00 5.3933745142523115e-01 1.5438307602944972e+01 1 0 3
317 2 5.0720797382625697e+00 6.2312610110870006e+00 1.5022480951864713e+01 1 0 -2
219 2 1.2009584411166909e+01 1.3298608336100259e-01 6.5609500191087333e+00 -1 0 3
1084 1 -2.5522069137103109e+00 3.7339015266256332e+00 9.4533559192741770e+00 0 0 0
1036 1 6.8567236606428201e+00 4.7822980515282572e+00 1.5082733479577254e+01 -1 0 -1
168 2 9.2581272328031581e+00 8.9902189240263137e+00 1.6056383040411397e+01 1 0 1
110 2 2.7141231660410270e-03 3.0127597432423077e+00 1.5719414793391890e+01 -3 0 3
517 1 1.0871295263635691e+01 3.9438850227187281e+00 1.6654164043067990e+01 -3 0 0
701 2 7.3472210008731764e+00 4.2805166690009910e+00 1.1354840308174417e+01 3 0 2
802 1 1.4813898507004797e+01 -2.6711018944126663e-01 4.2262095083044171e+00 -1 0 1
570 2 2.0767787174182972e+00 6.1230971087453803e+00 1.5180184632679749e+01 -1 0 -2
440 2 1.9021754720192412e+00 4.2581886429439564e+00 1.5900165389282362e+01 3 0 2
269 2 3.8067675919830606e+00 2.1376774924543511e+00 1.3136988986645649e+01 2 0 1
506 2 -3.1960972152582685e+00 5.7235228087202801e+00 1.1582700824929333e+01 0 0 0
733 1 1.9295269715694205e+00 -6.3358380292633054e-01 1.8599858070575739e+00 1 0 4
351 2 1.0812993111823728e+00 7.5364515080777945e+00 1.3650653238134881e+01 0 0 3
843 2 2.3507457681039323e+00 5.1194867540005449e+00 6.1288055861826107e+00 1 0 1
292 1 -1.6841913188517634e+00 8.5972481308296498e+00 1.3002301344047870e+01 4 0 3
591 2 -4.1170069013452810e+00 1.4101518751843263e+00 1.8369091172709410e+01 -3 0 -1
489 2 8.7529902506401971e+00 1.5277534117684071e+00 8.7322173022769860e+00 -6 0 -5
833 2 5.6443195472473091e+00 4.1695887352343619e-01 1.1933452069102326e+00 0 0 4
850 1 -2.3429010809362723e+00 7.0655490696935779e+00 1.0822448538366656e+01 -1 0 2
743 2 4.2833781077324220e+00 9.3425432781058637e-01 1.1780289029080413e+01 1 0 -1
793 1 1.0444185979855614e+01 8.7398545176943898e+00 1.0035772383233494e+00 1 0 3
683 2 6.0743525336876383e+00 2.4548487515420980e-01 1.2949588790741929e+01 3 0 -1
205 1 1.4553329077907473e+00 6.1370246228505794e+00 1.0710014413594886e+01 -2 0 1
163 1 8.1252487240209810e+00 4.7893849600364975e+00 9.9983604298546780e+00 -3 0 0
149 2 1.1287460012836043e+01 3.7785109310099214e+00 9.2035179475791935e+00 1 0 -2
231 2 1.3792872644199395e+01 2.1231998988905469e+00 1.1679172893774536e+01 1 0 2
181 1 1.5150733311226004e+01 5.8130999790254849e+00 1.0596761084057620e-01 1 0 4
151 1 6.7350364623706565e+00 7.9333426734646082e+00 7.0454474810310552e+00 2 0 1
788 2 3.8422644457832140e+00 8.2853649436477674e+00 8.3959466346916223e+00 2 0 -1
257 2 7.9613346502963900e+00 7.0218675729128943e+00 1.2132784107906092e+01 2 0 2
942 2 5.5066318757012640e+00 9.6538336800018261e+00 1.7673481963977228e+01 2 0 5
490 1 4.5946187084321348e+00 3.8553976274402597e+00 5.9638775804068322e-01 1 0 4
252 2 1.0783317328665813e+01 1.2367106469727269e+00 1.5313620737791869e+01 2 0 4
469 1 -3.9163375961670113e+00 -5.4531670511198449e-02 1.2409535243374417e+01 -1 0 1
55 1 1.0209703653094612e+01 3.1967249396333779e+00 6.7867665709624188e+00 1 0 1
891 2 5.1506923791239139e+00 9.7301766395429894e+00 1.3294474241860905e+00 -1 0 5
1085 2 -3.0572634250751793e+00 3.2727861898804900e+00 1.0207115343951180e+01 0 0 0
499 1 1.4656845376621408e+01 7.3257824972051608e+00 5.3773247000804920e+00 -1 0 2
407 2 2.0950827992989387e+00 6.6057549615792590e+00 9.3580002969982452e+00 -1 0 2
526 1 1.4119217803298767e+00 9.3772669078046977e+00 9.2825141144201346e+00 -2 0 3
680 2 6.5907820164040087e+00 1.9816947283200501e+00 1.4912766600902561e+01 2 0 3
1535 2 1.8612891160009255e+00 9.3628285132338540e+00 1.0139783794717063e+01 -2 1 3
1673 2 9.6857949822446372e+00 1.0421663989253560e+01 1.2679473010002393e+01 0 0 0
109 1 2.2175894286384423e-01 3.8746645988757695e+00 1.5338758909795411e+01 -3 0 3
12 2 9.8284374040245623e+00 2.6907073300766551e+00 3.1096804353760823e+00 -1 0 -3
644 2 1.5675521052216400e+01 8.2642029796242458e+00 6.2923812219680304e+00 -2 0 -2
766 1 1.0105480482957313e+01 5.8241700170501920e-01 1.2062965546021841e+01 -2 0 1
845 2 -2.9940744159734582e+00 9.2423866240408206e+00 1.8464847090948453e+01 0 0 1
304 1 8.0849870236390853e+00 3.6394137038785246e-02 3.4446141656772098e+00 1 0 1
141 2 6.6576288190152804e+00 -8.1067265099577068e-01 3.9799771909309087e+00 -4 0 3
949 1 1.0029295825163441e+01 -5.5088389804447646e-01 1.8583738419867579e+01 2 0 3
487 1 9.4967490799784127e+00 1.2541156805545648e+00 8.1900943669427324e+00 -5 0 -5
752 2 1.3641265372031976e+01 7.3020260684268763e+00 8.8073499237998565e+00 0 0 -1
325 1 1.3774747119182765e+01 4.2040431573045147e+00 4.5634686676353251e+00 1 0 3
966 2 1.0835512100205165e+01 7.4940035839831598e+00 8.0434747679375462e+00 0 0 4
580 1 1.4317620383742176e+01 1.4531431690935404e-01 3.7321212820391042e-01 -2 0 3
31 1 1.0343040645909790e+01 1.2948178483387665e+00 1.5782858178990705e-01 1 0 0
111 2 -2.5422857444775282e-01 4.6100740869269723e+00 1.5827785056294442e+01 -3 0 3
15 2 3.8790658238983804e+00 5.7877122163191927e+00 1.3112256818566319e+01 2 0 1
380 2 2.0993079771461320e+00 -9.5785853919339381e-01 1.0072690407599364e+01 2 0 3
24 2 2.5245021087164585e+00 9.0175963688617138e+00 5.5173113831002834e+00 3 0 5
736 1 1.3469029642850488e+01 3.0442681149802127e+00 2.1353088012434029e+00 -2 0 1
780 2 2.9938064476204911e+00 2.0103983909273957e+00 1.6225585507292731e+01 -1 0 2
316 1 4.4438352216225230e+00 6.7838326685344548e+00 1.4527545259528647e+01 1 0 -2
153 2 7.4688143814817050e+00 8.5094933519945872e+00 6.8666035652417330e+00 1 0 1
439 1 2.8370110625842164e+00 4.3686325285228831e+00 1.5752267259910266e+01 3 0 2
478 1 -1.8335240280752267e+00 1.4272303310974372e+00 1.3563784590195670e+01 4 0 2
259 1 5.9786540611856176e-02 3.4636848371599056e+00 9.6750363543286544e-01 -4 0 2
373 1 4.2603879544219776e+00 3.9935694676276388e+00 5.9278823287351710e+00 1 0 1
93 2 -1.3525515561652108e+00 3.6397092772807529e+00 4.7254582555086087e+00 5 0 1
480 2 -8.4606672787275850e-01 1.4343833063238209e+00 1.3527038397231768e+01 4 0 2
18 2 8.8647249199045408e+00 -4.0370585940164094e-01 7.2274473289966332e+00 0 0 3
130 1 1.1629089477156359e+01 -8.1228311309230916e-01 1.3568594845723149e+01 -3 0 -2
501 2 1.4634549409669205e+01 6.4886703313481666e+00 5.8940438382222036e+00 -1 0 2
791 2 5.3150172007839611e+00 -4.4551826153109708e-03 1.6015412593223626e+01 1 0 2
699 2 -3.5151870684073011e-01 9.4091646837055318e+00 1.4130018259116284e+00 1 0 3
767 2 1.0152427998469211e+01 1.5553404247110518e+00 1.2149337175872091e+01 -2 0 1
1998 2 1.2742490379474066e+01 2.6613783338846511e+00 1.4115245910410998e+01 3 0 2
182 2 1.6091733984133487e+01 5.9990951351760469e+00 1.0561050917446757e-01 1 0 4
164 2 9.0476570175123978e+00 4.6072722903134347e+00 9.7656529182307850e+00 -3 0 0
79 1 1.0212148352187427e+01 3.1382691308912953e+00 1.2342283049588939e+01 -2 0 0
886 1 1.2108868958205470e+01 5.0189901891427260e+00 1.0280801138492233e+00 0 0 3
484 1 -5.9852322091986059e+00 1.3130832862939448e+00 1.8407839012890090e+01 1 0 2
807 2 -1.5501103284454727e+00 9.5705406694885191e+00 1.5692755699576947e+01 7 0 5
789 2 5.2439450324229364e+00 8.6766179978904390e+00 7.5857650056551158e+00 2 0 -1
828 2 1.2861922573700401e+01 9.7710346793986886e+00 2.3344241919152693e+00 0 0 4
674 2 -1.8216156439495490e+00 9.0617631434404933e-01 7.3189359433641616e+00 0 0 2
528 2 9.5370793559430789e-01 8.5328475732887838e+00 9.2354007959628959e+00 -2 0 3
92 2 1.5614941191374573e+01 4.4690315284640389e+00 4.5965296295918190e+00 4 0 1
411 2 -1.2474499944359350e+00 4.9073550347318760e+00 6.2901031382003918e+00 -2 0 3
270 2 4.8157941010055367e+00 2.6670972281192804e+00 1.4314174741376437e+01 2 0 1
888 2 1.2883866955177606e+01 5.3748396728025210e+00 5.8020861771991561e-01 0 0 3
846 2 -3.4695349884898907e+00 7.7469234509938296e+00 1.8213216323081980e+01 0 0 1
751 1 1.3718679704384233e+01 7.9577821118667043e+00 9.5389047239550884e+00 0 0 -1
349 1 8.8031530129000402e-01 7.9231604052741620e+00 1.2772782212583930e+01 0 0 2
474 2 8.6856055443002500e-01 1.2109214279608387e+00 1.6448413666718576e+01 2 0 4
50 2 1.3927642445147164e+01 1.8336878293603953e+00 6.8197039191268543e+00 1 0 3
762 2 7.2744619630337892e+00 1.9892517485112751e+00 1.3015958722734670e+01 2 0 4
161 2 -9.4434297724189786e-01 7.9424621505967590e+00 1.8910506593832789e+01 -1 0 1
165 2 7.8144549241626198e+00 5.6830070031968436e+00 9.8429258580317462e+00 -3 0 0
222 2 3.1870940279011721e+00 4.2954473609948502e+00 1.8944496691425986e+01 2 0 0
406 1 2.7829263301711715e+00 6.8139665777227201e+00 8.6743767381143435e+00 -1 0 2
703 1 -2.7315227808423241e+00 4.3170879809757112e-01 9.9479800131959664e+00 -1 0 1
518 2 1.0404437761209708e+01 3.9692303642802331e+00 1.5844224266424757e+01 -3 0 0
288 2 -4.8034597277883773e-01 3.9943565405286199e+00 1.3846439200711620e+01 -3 0 2
206 2 2.2115147986532433e+00 5.8758194585017307e+00 1.1329922153895749e+01 -2 0 1
742 1 3.4960364001375872e+00 1.3519965057871741e+00 1.1288309745074159e+01 1 0 -1
673 1 -2.2289536031740491e+00 1.7870896392957665e+00 7.2309960523796262e+00 0 0 2
356 2 -3.4308211311898296e+00 -3.9173639340834021e-01 1.5849336122393533e+01 -1 0 1
507 2 -2.7151432824268751e+00 4.7991651341747827e+00 1.2809279514601794e+01 0 0 0
276 2 5.5621627314295150e+00 3.4106041603289885e+00 1.1073218696656459e+01 -2 0 0
415 1 5.9490016752099439e+00 7.0831781167753913e+00 1.1825606292374051e+01 0 0 1
519 2 1.0215500922972957e+01 3.8581866856701943e+00 1.7344986770499393e+01 -3 0 0
500 2 1.3777098677792701e+01 7.7258640854124234e+00 5.4761779718095340e+00 -1 0 2
64 1 7.2639068662182664e+00 1.4692665233995545e+00 9.6861597269086577e+00 -2 0 2
952 1 1.0873309863358898e+01 5.7438603602360452e+00 3.2646274353870215e+00 -1 0 4
162 2 -7.4205393445424139e-01 7.2049577337001089e+00 1.7514655020746609e+01 -1 0 2
853 1 -1.7666570666251746e+00 -6.9266235500447260e-01 1.5863307956950095e+01 1 0 0
545 2 2.1760231507044452e+00 3.1020058017583452e-05 6.3251366849967381e+00 0 0 2
760 1 7.4962045453656101e+00 1.2928738883336637e+00 1.3676139607607826e+01 2 0 4
757 1 1.1643370350795692e+01 5.2820389202383859e+00 5.7682434339741757e+00 -5 0 -1
495 2 6.0307770536720007e-01 -3.9180411916256364e-01 1.8269065157039961e+01 0 0 1
744 2 3.9562816590482601e+00 1.9623046834050792e+00 1.0673617192750246e+01 1 0 -1
875 2 7.0965800602080193e+00 5.2514325065247460e+00 6.2047708691417522e+00 -2 0 4
315 2 1.1741838640328703e+01 8.2544726317101951e+00 6.0652222767646213e+00 1 0 0
758 2 1.1289034870530081e+01 6.0424844667035584e+00 6.2580648669859231e+00 -5 0 -1
438 2 4.2342896508517338e+00 5.8179178695352229e+00 8.3154189091069295e+00 0 0 4
176 2 1.1845392271602353e+01 1.0208959974072110e+01 1.2817085562964067e+01 -1 0 1
738 2 1.4424809865867072e+01 3.1033728516651244e+00 1.9446255755525741e+00 -2 0 1
57 2 1.0092093716198846e+01 2.3153753993786186e+00 7.2530637173985220e+00 1 0 1
492 2 4.6814576605900600e+00 3.7996949275968683e+00 1.5333460029158126e+00 1 0 4
877 1 8.3820942455534606e+00 3.6854927981244465e+00 1.7527289203420029e+01 0 0 2
616 1 -4.4315011244208291e-01 7.3506430993472538e+00 8.6363904559649534e+00 0 0 1
876 2 7.3316460650700144e+00 5.7331762429450093e+00 4.7962976353276892e+00 -2 0 5
434 2 -3.2179428427764183e+00 5.3206249929549321e+00 1.8891978482953558e+01 2 0 4
242 2 7.6589842973150812e+00 4.2191743010043883e+00 8.3452899592195369e+00 1 0 0
54 2 4.9840823467558204e+00 6.3252755681849182e+00 4.6052776563917233e+00 1 0 4
104 2 1.1987680150839182e+01 -6.4591560944714299e-02 2.1487842955383361e+00 0 0 2
682 1 5.1810582055203938e+00 -6.3542726284333551e-02 1.2727381839625654e+01 3 0 -1
648 2 8.4718862635568470e-01 3.5096469471367007e+00 1.8682390070849532e+01 -2 0 2
561 2 9.0679449336165003e+00 6.0407979392278657e+00 2.2156512877416015e-01 3 0 2
320 2 1.3511549126692804e+01 4.7875039622132731e-01 3.7790926732903296e+00 0 0 1
201 2 5.0107087792463929e+00 3.8042649616674140e+00 4.3861200252953267e+00 -2 0 0
589 1 -3.1517172075698801e+00 1.4324785023493951e+00 1.8229782022078759e+01 -3 0 -1
996 2 1.2705244820141672e+01 -5.2178094177531809e-01 9.5399953078209219e+00 2 0 2
964 1 1.0674035737923436e+01 7.4034427199102719e+00 7.0639102884293568e+00 0 0 4
1408 1 1.0081045023260812e+01 1.5054732826130905e+00 4.6020020040783711e+00 -1 1 0
319 1 1.2654634406988846e+01 9.2902133839890721e-01 3.5502822222937986e+00 0 0 1
1008 2 1.2040345737652874e+01 5.2987002688963454e+00 1.6955086241954771e+01 -1 0 0
893 2 -3.4064398119837902e-01 -2.4046517045461480e-01 1.1871562510405344e+01 -1 0 -1
221 2 2.8328824375856954e+00 4.4029181482098805e+00 1.7490362688799689e+01 2 0 0
404 2 3.6066879808397152e+00 1.1765033743387883e+00 5.2990545321919811e+00 1 0 0
909 2 1.1115583434087371e+01 4.6421005406033666e-01 1.0849239373734326e+01 3 0 5
491 2 4.0762429118029546e+00 3.0826058130853209e+00 2.5396126922519935e-01 1 0 4
842 2 8.8120746347191226e-01 5.2010748656268797e+00 6.8107620152172714e+00 1 0 1
913 1 7.8121840112181715e+00 5.3041302746142041e+00 2.8679445545512792e+00 -2 0 1
470 2 1.3565083615612597e+01 -3.5588020425972888e-01 1.2838125454357057e+01 -2 0 1
984 2 1.4275570935041330e+01 -1.1878963645106433e+00 1.4558533480022826e+00 1 0 5
563 2 1.3277232615977884e+01 8.1505881038192953e+00 1.2980908346742829e+01 -2 0 0
878 2 8.1646358194333182e+00 4.3264913459885852e+00 1.8285985524560662e+01 0 0 2
428 2 2.3843677138859958e+00 3.8219321879063459e+00 2.6062073802920467e+00 1 0 4
953 2 1.0564955666264710e+01 6.6632382453066059e+00 3.4500826484795528e+00 -1 0 4
524 2 7.1438005970919836e+00 7.4686154494535870e+00 8.6119080673255315e+00 0 0 1
355 1 -4.3805407235400828e+00 -7.7649726334795699e-01 1.5883211111495683e+01 -1 0 1
887 2 1.1860768814877289e+01 5.5754919300449801e+00 1.6966371671915652e+00 0 0 3
172 1 6.3323618561600385e+00 1.3473701568366789e+00 6.8082939872062145e+00 0 0 3
770 2 6.7734350364547122e+00 8.3259385622370274e+00 2.5531357729905864e+00 2 0 5
174 2 6.3765665958338564e+00 8.2307884485494576e-01 7.6346595827510280e+00 0 0 3
656 2 6.9394801647654969e-01 5.7486516145001287e-01 9.6187218304943602e+00 3 0 3
306 2 7.5999789846743848e+00 7.6401617282030498e-01 3.0498772576534079e+00 1 0 1
723 2 5.3310788207034276e-01 1.9474137005859542e+00 7.7854654415017999e+00 4 0 4
196 1 9.0990858310902940e+00 9.2365370068627417e+00 6.1272597429829503e+00 -2 0 -2
643 1 -1.9206642995365129e+00 8.8355376347779870e+00 6.6426846622650304e+00 -1 0 -1
851 2 -1.6293433175303058e+00 7.1042398154876665e+00 1.0114819940738233e+01 -1 0 2
1619 2 4.7511024931709329e+00 9.7216592124105627e+00 1.2739387439520694e+01 1 1 2
832 1 5.2865602366284019e+00 -2.2163539333734494e-01 5.0473213009476192e-01 0 0 4
948 2 5.1454783253669301e-01 2.9100602760920298e+00 3.7388753187824162e+00 1 0 1
261 2 -1.0330214774007490e-01 4.4126314815832677e+00 7.9436226545327970e-01 -4 0 2
771 2 5.3502899553894885e+00 7.7367939069750804e+00 2.8291615768859466e+00 2 0 5
479 2 -2.0234197020194769e+00 2.3042421771273722e+00 1.3230203167051325e+01 4 0 2
708 2 1.1642387557278777e+01 6.8574725630868283e+00 1.4174188696738094e+01 2 0 4
769 1 5.8456440457104311e+00 8.2342220639703427e+00 2.1632314603862541e+00 2 0 5
1115 2 2.9719072822454251e+00 6.0799203881162702e+00 3.2308328119230505e+00 1 1 2
722 2 1.8664488444267882e+00 2.1707817175231701e+00 6.9235015535470898e+00 4 0 4
32 2 1.0110506369203929e+01 1.9352252030507997e+00 8.1187493610669326e-01 1 0 0
103 1 1.1394374159061956e+01 -7.6628291135017013e-01 1.8116379009459582e+00 0 0 2
274 1 5.2282183685484638e+00 3.1492642533885435e+00 1.0196861179687769e+01 -2 0 0
385 1 1.1044775676058912e+01 7.0149312892562605e+00 9.7857648193509856e+00 -1 0 1
829 1 1.4643702812849568e+01 1.0452366924860700e+01 8.1657484701266405e+00 -2 0 2
679 1 5.9497414687268435e+00 2.3953778588863259e+00 1.5630391889012062e+01 1 0 3
568 1 1.6230487153745088e+00 6.9969583218784575e+00 1.5084079747502585e+01 -1 0 -2
691 1 7.4912348471044421e-01 8.0497833863645685e-01 1.2753743274616916e+01 -1 0 1
493 1 1.5293370593830549e+00 -6.1691465545908786e-01 1.8270638444026076e+01 0 0 1
198 2 9.0704676219779827e+00 9.4109281879129121e+00 5.1622717996166587e+00 -2 0 -2
62 2 9.6721172166867326e+00 5.3597146892305707e+00 1.4358876024113217e+01 1 0 3
564 2 -4.5386145082675284e+00 6.6948638425522420e+00 1.2749635782001304e+01 -1 0 0
11 2 1.0424959823907068e+01 3.9484227465408024e+00 2.4269347062952407e+00 -1 0 -3
132 2 1.1319311508405477e+01 -1.0774972184917333e+00 1.4468755574872896e+01 -3 0 -2
704 2 -2.2360489928235650e+00 -1.1362020541528639e-01 1.0597749500083657e+01 -1 0 1
505 1 -3.4924990940607077e+00 5.0514382446892059e+00 1.2310818179069678e+01 0 0 0
175 1 1.2835768421510110e+01 9.9578082455143022e+00 1.2613640123317809e+01 -2 0 1
855 2 -1.1216372891120203e+00 -2.8673944592064737e-02 1.6237722283980304e+01 1 0 0
840 2 5.1645615734171129e+00 -1.1866475455849117e+00 9.4086084168271196e+00 1 0 -3
841 1 1.6766681281277909e+00 5.7396984845560590e+00 6.4909155477752281e+00 1 0 1
721 1 9.0005987053487768e-01 2.3595453923974534e+00 6.9422335172424834e+00 4 0 4
669 2 -1.1567969263071420e+00 6.4684285805375170e+00 1.5626637871916989e+01 0 0 2
229 1 1.3768938344564432e+01 2.1198010020798965e+00 1.0699550478681797e+01 1 0 2
768 2 1.0591674657802013e+01 6.2168821629403181e-02 1.2687038990418280e+01 -2 0 1
260 2 8.3379649313947835e-01 3.2397167568244543e+00 1.5093537601550542e+00 -4 0 2
47 2 1.5019054722682439e+00 9.7855218173826710e+00 1.6480568104609418e+01 -1 0 4
200 2 5.9133803212374367e+00 4.4127391761136723e+00 3.2040898968323832e+00 -2 0 0
350 2 -3.8577926555245057e-02 8.3208573396964969e+00 1.2795541507045929e+01 0 0 2
775 1 8.4350413641922710e+00 1.0036481192989921e+01 1.1544221143970345e+01 -2 0 2
778 1 2.4757363208807446e+00 1.2491792343778614e+00 1.6135358216640491e+01 -1 0 2
51 2 1.2903980199679834e+01 2.0405181728036119e+00 5.7224807075121893e+00 1 0 3
1410 2 1.5209533131943621e+01 5.1590195933400054e+00 8.3437387437415502e+00 2 0 2
604 1 6.4429243927829214e+00 1.6970027818351832e+00 2.2478001571812207e+00 -2 0 3
590 2 -2.9555656442755054e+00 1.7783635094117236e+00 1.7331555205010890e+01 -3 0 -1
645 2 -2.4091562592479727e+00 9.4250298315227479e+00 7.1910116256529832e+00 -1 0 -1
268 1 4.1308390576209462e+00 2.9413840645862770e+00 1.3628701993848562e+01 2 0 1
706 1 1.0739798596480716e+01 6.7443066382060621e+00 1.4516787744929479e+01 2 0 4
416 2 5.1487033509284705e+00 6.5185931623383508e+00 1.1954237602552238e+01 0 0 1
806 2 -2.7056590728188095e+00 8.8612249864975716e+00 1.6365565250819202e+01 8 0 5
914 2 8.0428402972254549e+00 6.0664529121040305e+00 2.3126396090561991e+00 -2 0 1
318 2 4.9015125775778170e+00 7.6039452739102487e+00 1.4336320543098260e+01 1 0 -2
72 2 -7.4711503139548086e-01 5.7246267567357023e+00 3.8425805624276692e+00 3 0 3
675 2 -2.2408632472006436e+00 2.2424110993076658e+00 8.0707109831853607e+00 0 0 2
287 2 -6.8771454073184390e-01 4.1140610912683178e+00 1.2251680128517703e+01 -3 0 2
737 2 1.2941257091717238e+01 3.7579657439594936e+00 1.6715574598221752e+00 -2 0 1
681 2 6.3347345928577639e+00 3.3118418625576265e+00 1.5601979462405387e+01 1 0 3
70 1 -3.7745686063583583e-01 6.5279884639058885e+00 3.3524790498580757e+00 3 0 3
374 2 4.7942511586006793e+00 4.3948425183308899e+00 6.6372050162911576e+00 1 0 1
84 2 8.5422533846331028e+00 3.0080112667724590e-01 1.6150575768003431e+01 0 0 -2
874 1 6.7994679924935371e+00 5.8987506213026801e+00 5.5733757827104560e+00 -2 0 5
435 2 2.5805114214566625e+00 5.7654148356056982e+00 9.9171664815621585e-01 2 0 6
14 2 3.6778984541801192e+00 4.4569358244175721e+00 1.2351371337840630e+01 2 0 0
717 2 1.6670926438387355e+01 2.7851654186311663e+00 1.7119103060727499e+00 1 0 5
150 2 1.0826058621321774e+01 5.1941828047921028e+00 9.7653403683708451e+00 1 0 -2
560 2 7.9472846732548259e+00 7.0659645239282582e+00 2.5573337151195225e-01 3 0 1
582 2 1.4839922086484297e+01 7.6477366512273592e-01 9.2032038388409654e-01 -2 0 3
658 1 1.4555405710617887e+01 9.7156240090289252e+00 1.7187812316309510e+00 0 0 0
22 1 3.4504525954395646e+00 9.3116404070937229e+00 5.6051172442141883e+00 3 0 5
605 2 5.9815125227847679e+00 2.4104507242048636e+00 2.7490035742631824e+00 -2 0 3
599 2 2.9889847764386843e+00 4.0035627170179278e-01 3.1243561026005788e+00 -1 0 4
839 2 3.7644747723527874e+00 -7.7177347833969279e-01 8.8522713952813188e+00 1 0 -3
67 1 1.2285699548370470e+01 1.3240932637098068e+00 1.5593014838438352e+01 0 0 3
559 1 8.7641520922284464e+00 6.8535790961933820e+00 7.3941186337362808e-01 3 0 2
698 2 1.7000659183279684e+01 9.4846138776025501e+00 3.0342593651639577e-01 1 0 3
667 1 -1.1870776710038973e+00 5.8827023859533885e+00 1.6398342790113837e+01 0 0 2
386 2 1.1821823272441090e+01 7.4841219531647134e+00 1.0003622408036787e+01 -1 0 1
1025 2 3.4144629922710967e-01 2.9818212949850205e+00 1.0086168156921248e+01 0 0 0
1003 1 8.6200298054375502e+00 9.0336655087849334e+00 3.1671023552804978e+00 3 0 0
61 1 9.3839291120726251e+00 4.4275426222593266e+00 1.4485292030897725e+01 1 0 3
433 1 2.7778261800627613e+00 5.8881182600586763e+00 5.2761810690091282e-02 2 0 5
273 2 1.7887561856021780e+01 7.1156173536911425e+00 7.3855865203888249e-01 -3 0 1
199 1 5.0879989725315236e+00 3.9359147732089372e+00 3.3815630050949212e+00 -2 0 0
473 2 -1.0705629065546507e-01 1.9494029385835909e+00 1.7355142575296622e+01 2 0 4
405 2 4.3679936287805345e+00 1.0709103728107183e+00 6.5956515901741426e+00 1 0 0
805 1 -2.1182014503317896e+00 8.7953761342019590e+00 1.5577964835723973e+01 8 0 5
100 1 9.8542602993491424e-01 8.2195813916276030e+00 5.5124992823700589e+00 2 0 2
988 1 1.2931231691582232e+01 3.0172322799700906e+00 1.3190418008373237e+01 3 0 2
488 2 1.0051821730353875e+01 7.2004595715724617e-01 8.8305302180672740e+00 -5 0 -5
250 1 9.7680322750485402e+00 1.2470681388239586e+00 1.5400720724303300e+01 2 0 4
53 2 4.1019189570807555e+00 7.6092899487318348e+00 4.8364670763765547e+00 1 0 4
598 1 3.6800121770289014e+00 8.7185551790606342e-01 3.5687362374287126e+00 -1 0 4
827 2 1.1440338898005294e+01 9.1128761511069527e+00 2.0490207879343161e+00 0 0 4
387 2 1.0435776060496309e+01 7.0783113039516525e+00 1.0532508504706234e+01 -1 0 1
657 2 -8.5918966969826993e-01 9.8025186866299041e-01 9.5571539352513586e+00 2 0 3
408 2 2.4065220871072497e+00 6.4828073269851823e+00 7.8366495260739910e+00 -1 0 2
381 2 2.7626518079793851e+00 4.3773990466268664e-01 1.0201900504679017e+01 2 0 3
994 1 1.3445986294440974e+01 -9.6687683098920241e-01 9.0244805928971132e+00 2 0 2
963 2 8.6850484827015357e+00 1.0271678438444484e+01 1.7434751572202988e+01 1 0 0
809 2 -2.6188128708435188e+00 2.1153135571062784e+00 1.5375673055570060e+01 1 0 1
275 2 5.1619279295512541e+00 3.9781178424195627e+00 9.6315945308127660e+00 -2 0 0
258 2 9.4714287363388756e+00 6.9878790287397088e+00 1.2664104323989203e+01 2 0 2
251 2 9.6135003731496678e+00 1.9949313075048978e+00 1.5962864678599166e+01 2 0 4
441 2 3.0451833371385524e+00 3.8362875456882310e+00 1.5032528017318116e+01 3 0 2
794 2 1.0090573349465835e+01 9.5441799572837951e+00 5.3732099484696560e-01 1 0 3
497 2 1.6364414739114842e+01 6.9381369488138720e+00 2.7742149676950389e+00 -3 0 1