LAMMPS data file via write_data, version 8 Apr 2021, timestep = 500000

384 atoms
2 atom types

0.03357029269567189 15.036527707305503 xlo xhi
-0.015290703880849387 14.185523703880058 ylo yhi
0.0728637572482533 13.632859242752145 zlo zhi
5.184968687198391 5.1756907699719115 3.5146830345855578 xy xz yz

Masses

1 16
2 2

Atoms # atomic

1 1 7.34420811719648 5.091249300354968 3.8050921047689665 0 0 0
2 2 6.96354798967873 5.856537414809928 4.249631252553264 0 0 0
3 2 6.56239366347293 4.5615119014395935 3.571195470164891 0 0 0
4 1 10.076161406455558 6.999075894768473 10.944021031615415 0 0 0
5 2 10.007681838074264 7.974775978429286 11.381537113640992 0 0 0
6 2 10.690651585196468 6.5627021938846495 11.62170132522322 0 0 0
7 1 10.08784340470569 12.334252921237695 4.017702753574489 0 0 0
8 2 10.39676193881068 11.923606128354628 4.816067903677378 0 0 0
9 2 9.711644734493886 13.170845775378563 4.246241030232222 0 0 0
10 1 12.701742982937551 14.128832403193533 10.61866435694097 0 0 0
11 2 13.370160743071839 14.30352825284205 9.937403363445753 0 0 0
12 2 11.995421954025025 13.611633849800945 10.258064881328412 0 0 0
25 1 11.82463942354739 8.130685090433461 6.288055805185445 0 0 0
125 2 5.226043519896608 4.475960909785677 10.783667469079033 0 0 0
27 2 11.37297304334115 7.564487061356246 6.98428596355901 0 0 0
28 1 14.346730798529714 10.03488854812274 12.837765654254714 0 0 0
29 2 13.555458877441255 10.584345501553235 12.54930478501018 0 0 0
30 2 14.967981632669364 10.585026868230626 13.378673973844375 0 0 0
348 2 8.972037198822688 15.082606133306845 10.333177081461956 0 0 0
83 2 6.182732012219654 10.00044988928725 8.472481577868072 0 0 0
33 2 13.21327760127166 15.620984100133908 6.106281456117407 0 0 0
34 1 16.66091672941573 17.062451574618652 13.09907006108135 0 0 0
367 1 9.481944093382374 14.576970222824688 5.337234858326494 0 0 0
204 2 13.701870006643857 10.880355359397624 8.656305400841886 0 0 0
49 1 5.179164127180918 3.7339570987859094 3.0364458578910267 0 0 0
50 2 5.034675532806834 2.8370660244011425 2.6663835353517764 0 0 0
51 2 4.801707868446164 4.226766293156666 2.2656598106501122 0 0 0
52 1 7.869817332195986 5.624188871883941 9.581002064488477 0 0 0
53 2 7.191495426443306 5.237571030342735 10.224952477345253 0 0 0
54 2 8.52409625583029 6.060551506209851 10.107398726313075 0 0 0
55 1 7.743955256214251 11.000311627108397 3.1549689198176556 0 0 0
56 2 8.059038317431565 10.129110500031464 2.788864608166784 0 0 0
57 2 8.595895709373758 11.438989615505163 3.4512697474415273 0 0 0
58 1 10.53078175584556 12.647509349287319 9.850474742380111 0 0 0
59 2 10.027225154197373 13.03143236418238 9.095508475185259 0 0 0
60 2 10.691388226426724 11.752634863058447 9.488583759880902 0 0 0
73 1 0.9375514029826776 0.7221777874178719 0.5365594659199815 0 0 0
74 2 6.887948892278381 14.368766821262405 0.88592645706262 0 -1 0
372 2 13.079855641916545 16.965281067638724 12.070453930169494 0 0 0
76 1 4.1325006580395245 2.598970823041217 7.64987061487814 0 0 0
26 2 12.565513791224582 8.635306109854584 6.671641140115655 0 0 0
78 2 4.943892956045574 2.001357126010082 7.832370864269218 0 0 0
89 2 10.644285000772442 3.3114773273447375 8.1462787033828 0 0 0
80 2 4.625161823011969 7.637463820384522 0.738351657028726 0 0 0
371 2 12.462640363450786 15.539791238640902 11.540250397041907 0 0 0
82 1 6.506619775575367 9.551955899900646 7.677177875321071 0 0 0
369 2 10.30855566660085 15.187199497152776 5.2714734588334125 0 0 0
193 1 8.026039186225876 2.479411113917488 2.5749502245947733 0 0 0
97 1 5.2103212041725895 4.308777601719224 6.037708363558146 0 0 0
98 2 4.6698839547107545 4.973275713657762 5.530735494053698 0 0 0
99 2 4.49389601496908 3.7466087328935425 6.420738361078632 0 0 0
100 1 7.772594969462784 6.081743293892312 12.761625946398802 0 0 0
101 2 8.005843355977488 6.5173452797582465 13.5654661698744 0 0 0
102 2 7.00898337486911 5.54336586292337 13.042904594806865 0 0 0
103 1 8.10311041318439 11.053780047726665 6.259007521417021 0 0 0
104 2 7.34531510009105 10.522975237636254 6.623108581072826 0 0 0
105 2 7.676426634857957 11.579064063653574 5.586924872122761 0 0 0
106 1 10.359540703080622 13.203272912929757 12.816904605310697 0 0 0
107 2 10.721522736145081 13.924572861885272 13.332075554605622 0 0 0
108 2 9.639703612681775 12.652633880069157 13.230465321372694 0 0 0
121 1 2.7891526676308938 2.825420865106249 3.9696725997913345 0 0 0
122 2 3.57046857518434 3.375419361402828 3.893353121113759 0 0 0
368 2 8.702983959675285 15.123107441273458 5.172885152007022 0 0 0
194 2 8.087090880660934 1.7904363253627318 1.8915206066818444 0 0 0
270 2 12.896544338869164 8.020700608107296 10.03498667780196 0 0 0
338 2 4.700157816191175 7.1939872612661135 4.683639670091857 0 0 0
127 1 5.6720940549801915 9.782878570359346 4.263223392812632 0 0 0
128 2 6.049822422458161 8.906064713641973 4.530512433136746 0 0 0
129 2 6.411003164780198 10.269972795605614 3.851567434500961 0 0 0
130 1 8.475384828504875 11.40253762806953 11.030812791578459 0 0 0
131 2 7.792523374233303 11.17457288080243 10.371933764267553 0 0 0
132 2 9.16114019738694 11.960354638657153 10.63904803327791 0 0 0
145 1 6.529911023971731 1.9345662594877375 5.066263147796561 0 0 0
146 2 6.1678926412515045 2.802271369805267 5.261318631926444 0 0 0
147 2 6.890362190829213 2.1063040294582165 4.145768243348645 0 0 0
148 1 9.341195043878786 3.9533011282304673 11.879598015824717 0 0 0
149 2 8.89021252602602 4.797947753736495 12.078210285825172 0 0 0
150 2 10.108408315707655 3.783010865137018 12.487607384196775 0 0 0
151 1 9.496992625069248 8.973194170703627 4.8031975565808125 0 0 0
152 2 9.062001816840645 9.733094243370923 5.348294345626113 0 0 0
153 2 10.328115773812574 8.681285985116455 5.229389392362794 0 0 0
154 1 12.145715528289996 10.918473105236522 11.631396731404683 0 0 0
155 2 11.725962728343973 11.776772943654965 11.874659850774028 0 0 0
156 2 12.378009837969259 11.049531552901314 10.674689422017398 0 0 0
169 1 9.098434491023976 4.478520689312162 5.95343606033747 0 0 0
170 2 8.471177958999942 4.819371852265715 5.3497276457839815 0 0 0
171 2 8.608690891325622 3.974911289559815 6.750228898666881 0 0 0
172 1 11.69519611731034 5.895076356994951 13.047744723190053 0 0 0
273 2 12.67514095952322 13.612096046805895 3.2996881469031165 0 0 0
174 2 11.970560365240607 6.7662426398882936 13.410569060081325 0 0 0
175 1 11.442380012081946 11.393300003002139 6.204915079337439 0 0 0
176 2 11.195933352842895 10.705452188685475 6.809647365017045 0 0 0
177 2 11.963060091583896 10.865676625562655 5.5424850132676085 0 0 0
178 1 14.30564517278991 13.270950602144318 12.641020608519879 0 0 0
179 2 13.797449428153335 13.680614417585105 11.94835993152382 0 0 0
180 2 15.062687966187623 12.84266271289945 12.240996239745733 0 0 0
341 2 6.7743489758795565 8.93211679750083 11.744084176007473 0 0 0
203 2 13.34029684735005 12.395130296774882 8.859494675590268 0 0 0
195 2 7.961998622745096 3.3304058010216995 2.120321888472353 0 0 0
196 1 10.927981749427541 4.224002467428926 9.74168824895981 0 0 0
197 2 10.290640116350685 4.035984643205918 10.497051036715142 0 0 0
198 2 10.84201338511876 5.138387026887141 9.430197984478783 0 0 0
199 1 10.785266539721466 9.623079301555066 2.5332635871774998 0 0 0
200 2 10.627006170929814 10.483226991826488 2.105929689902563 0 0 0
201 2 10.083011001962657 9.488499854634808 3.1679624189502626 0 0 0
202 1 13.69407533598384 11.590987050891956 9.370821243443256 0 0 0
126 2 6.338573784108978 3.486315719854969 11.442730558752535 0 0 0
35 2 17.367445103063233 17.576601106338067 13.380452755617798 0 0 0
217 1 5.207353602656859 1.2950864114241194 1.67223495425238 0 0 0
218 2 5.915960791148854 0.9488083019743263 2.29202827102959 0 0 0
219 2 5.84128415108936 1.5347562873988314 0.934865401662994 0 0 0
220 1 8.124204947430112 3.3378536058338 8.225494824489736 0 0 0
221 2 8.036921459519764 3.9643322459681505 8.978163160369899 0 0 0
222 2 7.374340495008926 2.6808104631328242 8.227433456900387 0 0 0
223 1 8.23762257609279 8.635408254973875 1.7226640072946506 0 0 0
224 2 8.877789725946267 7.9019309256313885 2.0502986850836478 0 0 0
225 2 8.550669649995488 8.967371544550609 0.8499121033270536 0 0 0
226 1 10.57105894311815 10.138203416797019 8.74439085248945 0 0 0
227 2 11.268550677565557 9.516331681288275 8.98361313455581 0 0 0
228 2 9.744993204386766 9.684460729352622 8.80151385189558 0 0 0
241 1 7.483519604073097 4.700930200423332 0.2942197640486447 0 0 0
242 2 13.381918685703287 8.749501458248586 13.470945125283386 0 0 -1
243 2 7.038265491517946 5.418445439879598 0.7674681451843356 0 0 0
244 1 10.365702875685104 6.34892786836296 7.734466355142739 0 0 0
245 2 9.59942738474617 6.797782734808953 8.150064743580504 0 0 0
246 2 9.860750134602405 5.839921741624571 7.044151008660791 0 0 0
247 1 10.007642413288425 11.616747292955642 0.8442623178940931 0 0 0
248 2 10.63104785425452 12.263083338470098 0.39507535949884504 0 0 0
249 2 9.576324751290398 11.062332004753442 0.1747226478250726 0 0 0
250 1 12.684628602655865 13.249403922530144 7.56146326580503 0 0 0
251 2 13.325853513880173 13.873777920989616 7.141153370332228 0 0 0
252 2 12.257757816027581 12.694055626316171 6.878474995022919 0 0 0
364 1 10.016265868125718 9.493601092412439 12.11415683974399 0 0 0
31 1 14.079027452814719 15.209278329383862 6.39949224430809 0 0 0
267 2 8.792273937679209 6.095595366730056 2.8822391021583242 0 0 0
268 1 12.245659834615857 7.96039521748957 9.37168746121921 0 0 0
269 2 11.404533805065048 7.686027215058433 9.788231498789827 0 0 0
366 2 9.362548394601452 10.067383724867273 11.690077735648266 0 0 0
271 1 11.995416543320482 13.41268329780458 2.6190673526753554 0 0 0
272 2 11.33225303067629 12.876953362281775 3.1053732631440534 0 0 0
79 1 3.734526841312318 7.974088962607932 0.695416805465861 0 0 0
274 1 14.752718922812289 14.744049448038533 9.243891103025772 0 0 0
275 2 14.732428283067783 15.56826180906699 8.65596549035042 0 0 0
370 1 12.326900268738793 16.32506142877 12.143443519337868 0 0 0
289 1 6.024912891090867 6.786952132620672 1.7735264150662717 0 0 0
290 2 6.676169494965972 7.520379901586331 1.8036870868619173 0 0 0
291 2 5.545227506033285 6.722955843124927 2.602248426890524 0 0 0
292 1 8.651219199270452 8.414176070115548 8.90887245353796 0 0 0
293 2 7.8830835955001435 8.719111365324567 8.329514739008731 0 0 0
294 2 8.248068564856515 8.230310256208625 9.762628226073135 0 0 0
295 1 8.371136514285404 13.766784141595855 1.9107403191115828 0 0 0
296 2 8.771446027933042 12.98313221506497 1.517635789724169 0 0 0
297 2 9.117036876863946 14.464748435320223 1.7857371533601585 0 0 0
298 1 11.427853085114936 15.53496642865359 8.294156753854036 0 0 0
299 2 11.287880044670612 15.456401617844893 9.24958991307177 0 0 0
300 2 11.784851465804962 14.640035114017913 8.032415286453386 0 0 0
313 1 3.836067605291765 4.390758444063068 0.8150346711378684 0 0 0
314 2 4.198751966309149 4.983887947981683 0.11858424120405779 0 0 0
315 2 3.2664171963448476 5.060831081428136 1.203708630288003 0 0 0
316 1 6.320004054348838 6.327866298669081 7.651781774680697 0 0 0
317 2 6.140648898960016 5.445051772430145 7.284070131602155 0 0 0
318 2 7.053508027986381 6.226879108851777 8.314637028386258 0 0 0
319 1 6.175614793815931 11.645490174485245 0.8027903269020158 0 0 0
320 2 6.831449868899937 11.390511940202293 1.5043016250076566 0 0 0
321 2 6.709304559217747 12.11656875653514 0.07852778118241008 0 0 0
322 1 9.089593514009115 13.277007441626518 7.773212872918063 0 0 0
323 2 9.315438803759125 13.87313088902537 7.00781274270839 0 0 0
324 2 8.553784319243737 12.486424523673282 7.346475287301602 0 0 0
337 1 4.595418659373527 6.412692538364499 4.092692000890359 0 0 0
265 1 9.561381850313897 6.591847589129286 2.593319131242626 0 0 0
173 2 12.432059475697585 5.460655545706729 12.64060558495141 0 0 0
340 1 6.912006590227281 8.191070171216015 11.117391752247967 0 0 0
363 2 7.910298272099322 7.880637885551676 5.074697037535167 0 0 0
342 2 7.161895114100982 7.405087278200255 11.650346957757813 0 0 0
343 1 7.043223416742775 13.568812617156606 4.183924191467819 0 0 0
365 2 10.870154983592558 9.97487744544233 12.077505937277595 0 0 0
345 2 7.48953144914513 13.835496742867363 3.320283548616372 0 0 0
346 1 9.809682139195926 15.133281517747212 10.921397992772299 0 0 0
347 2 9.836241883812123 14.272670262210296 11.405656816271257 0 0 0
124 1 6.161229613831447 4.414137544162606 11.071601048362009 0 0 0
361 1 7.008041718183641 7.546310562990235 5.101429301540202 0 0 0
362 2 6.783690742635945 7.322428649543327 6.037921304571226 0 0 0
77 2 3.383240292283512 2.0634959969633706 7.4203108998239315 0 0 0
84 2 5.801334507029113 8.990529022161322 7.284609149335627 0 0 0
339 2 3.731179960884652 6.417718081717673 3.7155176650610913 0 0 0
266 2 10.194041122061046 6.647168236780245 3.3233029279742015 0 0 0
288 2 8.074582554947884 14.308723457627153 8.647768018639384 1 0 0
32 2 14.671215271825108 15.899916327655667 6.695586714410634 0 0 0
36 2 17.00867276647289 16.534170261607915 12.422564643210858 0 0 0
134 2 9.996574604325444 3.3795502274808027 4.875040602329448 0 0 0
282 2 5.194042531154801 6.971607884611028 8.769265250679384 1 0 0
344 2 6.231448281061702 13.06130669840272 3.8899402391059312 0 0 0
47 2 9.502086516822922 16.30240507932144 12.029008178860524 1 0 0
276 2 15.130020038150045 14.026444289423013 8.696770762844904 0 0 0
81 2 3.6410304076195703 8.52301766713636 1.517372206304988 0 0 0
45 2 6.898885598708495 14.365716097476719 5.675033765403934 1 0 0
13 1 15.107281561404006 4.964568675803711 4.211767449096554 0 0 0
14 2 14.360817697960002 4.406201754186478 3.7551304592292554 0 0 0
15 2 15.27614894376445 4.553585726832658 5.049347617852184 0 0 0
16 1 17.821530481852207 7.153120835721645 11.013592106302147 0 0 0
17 2 17.128807490793573 6.471991586544223 10.830748568509717 0 0 0
18 2 18.529651348405487 7.151173326309297 10.372653655771126 0 0 0
19 1 17.56383712288746 12.385737693473219 4.026530931604824 0 0 0
20 2 18.45649672692086 12.123477275318447 3.719580521292221 0 0 0
21 2 16.971827850998103 11.597992547026434 3.896873691284545 0 0 0
22 1 20.14227102987711 14.165105166917337 10.574847022984283 0 0 0
23 2 20.74243757233307 14.513778374243204 9.880641574866239 0 0 0
24 2 20.805581293963876 13.980797453370641 11.277739636746448 0 0 0
37 1 19.187725562811604 8.443908585053526 6.31737139434515 0 0 0
38 2 18.457194220727747 8.552411016808566 5.6864575154806785 0 0 0
39 2 18.999294676612696 7.537266428089097 6.632261979453396 0 0 0
40 1 21.786923247066262 9.967659099590549 13.234460772863057 0 0 0
209 2 18.70273679775685 3.561397454837751 9.07469790118606 0 0 0
42 2 21.125903559618383 10.442743855031067 12.757900719962564 0 0 0
43 1 21.819816205971836 15.012765011582061 6.45717887310438 0 0 0
44 2 21.031306130832007 15.521454591239086 6.2347990262193935 0 0 0
48 2 25.0488969181931 17.16476037248172 13.179121451431925 0 0 0
46 1 24.216493359135676 16.720534078975405 12.860801072459948 0 0 0
384 2 19.692656215057372 15.631088574665458 11.496141312802072 0 0 0
353 2 14.478769099155173 8.753977180134635 11.761455882280968 0 0 0
61 1 12.842225152084245 3.6322340660921832 2.9379619081934747 0 0 0
62 2 12.132469273227871 3.570055379897494 3.612121513678277 0 0 0
63 2 12.391084227464752 4.020805810623703 2.1518650482504023 0 0 0
64 1 15.643345544887513 5.389104876059009 9.79865846480988 0 0 0
65 2 15.211018780278904 5.724189429145379 8.975944101884648 0 0 0
66 2 14.92141244070245 5.173743433182285 10.408068164384122 0 0 0
67 1 15.465005455598035 10.861524416803547 2.86880790234472 0 0 0
68 2 15.717160560550417 10.097528202007835 2.261474708652923 0 0 0
69 2 14.605645624231236 10.523479061749773 3.2954270641253065 0 0 0
70 1 17.949965693015645 12.433167171239113 9.394635847767194 0 0 0
71 2 18.732613023689737 12.943162367061777 9.528559119728504 0 0 0
72 2 18.238277217878156 11.481457086754451 9.176179125625426 0 0 0
85 1 8.515189881861739 0.7892174953870008 0.6398454491802142 0 0 0
86 2 9.186540582287506 0.3350699246765956 1.233497293442828 0 0 0
87 2 14.19418759949736 4.93733768140047 13.591405147889562 0 0 -1
88 1 10.833438893917666 2.5446087025860735 7.579813406266212 0 0 0
383 2 19.342181950324935 15.996942684333375 12.917908361646456 0 0 0
90 2 11.549113805390043 2.0913981979020133 8.069864106093345 0 0 0
91 1 11.318846792201226 7.863968497660348 0.6373290667627789 0 0 0
92 2 12.143644659840852 7.378532306616615 0.7683030722363574 0 0 0
379 1 17.247607889964325 14.66506536167922 5.266181051381273 0 0 0
94 1 13.705059699540802 9.731915134298763 7.279339720045692 0 0 0
95 2 14.400625971108425 9.211317067399957 7.728636169270449 0 0 0
96 2 14.18639737146773 10.303845977296625 6.618592122546124 0 0 0
109 1 12.549816014362122 4.03635235230351 6.047602431439302 0 0 0
110 2 11.84325628317054 3.6436115110324825 6.53406056672651 0 0 0
111 2 13.130400968113728 3.3225971138888504 5.968969317627926 0 0 0
112 1 15.54802414344032 5.886150338515136 12.973570793432545 0 0 0
113 2 16.243179358233636 5.237349665452769 12.9159000942563 0 0 0
114 2 15.872308496257418 6.532019147957835 13.605282521726252 0 0 0
115 1 15.089225832752113 11.384780803588072 5.824132102793549 0 0 0
116 2 14.74688947826984 11.952095447468052 5.156042568043313 0 0 0
117 2 15.458880312809509 12.013958833732595 6.515478282305543 0 0 0
118 1 17.736379814952123 13.079865463454672 12.740099253416751 0 0 0
119 2 18.08094511841959 13.613500109390873 13.484245519738879 0 0 0
120 2 17.180044383235384 12.366201755636764 13.179443267437266 0 0 0
133 1 10.23900523971779 2.550257618871121 4.362825785867347 0 0 0
380 2 16.67044869481679 15.362708866563718 4.986760603432981 0 0 0
206 2 16.274819625002536 2.814582875398906 2.829248781542623 0 0 0
136 1 13.496185480000655 4.710172984560496 11.328709683544638 0 0 0
137 2 13.66863901935655 3.797174382409684 11.73259605043656 0 0 0
281 2 20.634435723933855 7.856365565950922 9.978047149391603 0 0 0
139 1 13.25197653235494 9.941038231897585 4.107803929617826 0 0 0
140 2 13.544754115765354 9.147600848628365 4.603556816562598 0 0 0
350 2 11.83675667232758 6.855817625444963 5.041631696927548 0 0 0
142 1 15.913649674407221 11.941268870748546 11.051982118504553 0 0 0
143 2 16.5884879558759 12.289573936551388 10.444597907139688 0 0 0
41 2 22.578378410170757 10.590935718038125 13.34451940084835 0 0 0
157 1 14.366229026401848 1.98278628122094 5.41072885666877 0 0 0
158 2 13.64268976369026 1.3571004499299941 5.353807970832162 0 0 0
159 2 14.552025242833329 2.0137380940084446 4.492375593923731 0 0 0
160 1 16.759878720032397 3.869026676101197 11.839454810057076 0 0 0
161 2 16.02016492660824 3.1969182410724097 11.800119269032296 0 0 0
162 2 17.510849134160292 3.323946197479793 12.102750498821733 0 0 0
163 1 16.76820975624784 9.126731428664039 5.097097246155793 0 0 0
164 2 16.17518892969922 8.341600679047282 5.14447607925583 0 0 0
165 2 16.27320460506719 9.807047686782843 5.592724693808769 0 0 0
166 1 19.694335835885422 11.167659532879892 11.945961465378689 0 0 0
167 2 18.952535136439725 10.57878535195142 12.052140233897193 0 0 0
168 2 19.363850567372456 11.94601536150875 12.429829267524305 0 0 0
181 1 16.654268665901416 4.042757067831815 6.244097298559417 0 0 0
182 2 16.416321681629533 3.3709900284539236 6.857112546438795 0 0 0
183 2 16.966682236286765 4.80621621794773 6.837211538771616 0 0 0
184 1 19.132169171988117 5.999002887380879 12.911842291337077 0 0 0
185 2 19.77285247624402 5.374309472782462 12.502208647524906 0 0 0
186 2 18.61546273538005 6.34319200675744 12.146321399417902 0 0 0
187 1 19.60587114457615 11.52657654361614 6.0406807994254015 0 0 0
188 2 20.025764539606847 10.756402795671427 5.564803663312677 0 0 0
189 2 18.824016009651057 11.872126291285467 5.579075974360594 0 0 0
190 1 21.62334501933477 13.399152662863639 12.665011717748733 0 0 0
191 2 22.46432048128125 12.990456130940652 12.297675988868031 0 0 0
192 2 21.94221229594216 14.199889044069606 13.22628830549262 0 0 0
205 1 15.468619018964718 2.648685377307738 2.3245030165513927 0 0 0
376 1 17.497901949594397 9.573075430101701 12.245713531339655 0 0 0
207 2 15.161803175620632 3.5307205741873315 1.9147395233054838 0 0 0
208 1 18.679889721237235 4.289315749922102 9.751557830626394 0 0 0
374 2 14.898304387563629 6.464730611404581 5.003333015979807 0 0 0
210 2 17.82644431599583 4.09479323532275 10.16888596305491 0 0 0
211 1 18.431424144229354 9.597330139622304 2.7542167740078503 0 0 0
377 2 17.69281529022438 8.810233618059359 11.661770204004975 0 0 0
213 2 17.625055418479587 9.476091557991916 3.331229052874221 0 0 0
214 1 21.09917962966665 11.349506727796204 9.57106013744124 0 0 0
215 2 20.533700280378497 11.333341966862749 10.413653738607586 0 0 0
216 2 20.953789763956962 12.243047836363896 9.251565514411173 0 0 0
229 1 12.697087500850705 1.126867954954975 1.571840605721241 0 0 0
230 2 12.831759647343581 1.8913990911269591 2.181401461107074 0 0 0
231 2 13.086736057459776 1.4250992327029481 0.753434157339405 0 0 0
232 1 15.619759335294447 2.7042668292128162 8.46258695305849 0 0 0
233 2 15.499862481964445 3.477679487277471 9.04608504165038 0 0 0
234 2 14.679581023135855 2.386923420859655 8.370596913663679 0 0 0
235 1 15.781795575770385 8.673072047761828 1.418137460817416 0 0 0
236 2 15.999292000928403 8.844373786396615 0.49180409907581707 0 0 0
237 2 15.147634809364225 7.940541280644509 1.2691989805104198 0 0 0
238 1 18.29056709575104 9.73840632930317 8.63651834445183 0 0 0
239 2 18.835581846909726 8.944169614004569 9.000859497048337 0 0 0
240 2 18.270963651302537 9.500626085677967 7.655416230894209 0 0 0
253 1 14.623726999415576 4.516026853481768 0.6058108075713524 0 0 0
254 2 15.352734730648962 4.894175121065618 0.11672963531821406 0 0 0
255 2 14.411479360636378 3.715789742881922 0.0828729008005377 0 0 0
256 1 17.912566355406863 5.931138443695113 7.684499751162945 0 0 0
257 2 17.17614666858456 6.370114707669146 8.115696124618086 0 0 0
258 2 18.327495875910984 5.406074325421827 8.483684342233678 0 0 0
259 1 17.576456599553744 11.491634758825139 0.8932059458419656 0 0 0
260 2 18.21472714242661 12.093322483730695 0.43140417750576654 0 0 0
261 2 18.099842598987635 10.925674614000895 1.491866970072162 0 0 0
262 1 20.454309801692524 13.223360648745643 7.984203049977929 0 0 0
263 2 20.938225101716608 13.947021257062211 7.578478709522794 0 0 0
264 2 20.153729253654593 12.658411212405564 7.184914590866283 0 0 0
277 1 17.38939013737207 5.981770729720197 2.5169405529444564 0 0 0
278 2 16.627317245709694 5.735357108925153 3.005902405609183 0 0 0
279 2 17.09204752760428 6.850440535581901 2.1882056479789562 0 0 0
280 1 19.84428825115953 7.691750376492536 9.377956517074642 0 0 0
378 2 16.88815777261917 10.121334695480131 11.716357124683977 0 0 0
212 2 19.2801952372733 9.737843277347489 3.3200765746524694 0 0 0
283 1 19.69026749435438 13.17381769438048 2.548860053690667 0 0 0
284 2 19.038818972828626 13.839092091714313 2.130645239737557 0 0 0
382 1 19.585173704559914 16.41694916130513 12.06022595503421 0 0 0
286 1 22.73955942074413 14.828962940854224 9.419076377008393 0 0 0
287 2 22.137869328340862 15.51958309810373 9.105571662280337 0 0 0
381 2 17.281027414611966 13.80025954098179 4.666444224808927 0 0 0
301 1 13.379275225853329 6.737464479311399 1.8213909512578657 0 0 0
302 2 13.705239939366953 5.931724555147008 1.3689459905297072 0 0 0
303 2 12.988668879912396 6.4629131566594475 2.6522304934467766 0 0 0
304 1 15.759689076287748 8.37849495967996 8.682125690221413 0 0 0
305 2 15.425241558911596 8.209940834756594 9.613133265215364 0 0 0
306 2 16.583957952640485 8.949517008925678 8.726184963393669 0 0 0
307 1 15.7642357502414 13.653094545560045 1.735759818922087 0 0 0
308 2 16.523493103058016 14.32196388314947 1.628914114962973 0 0 0
309 2 16.068041832220633 12.732913803121006 1.6960913758257103 0 0 0
310 1 18.401178462869836 15.235549803092104 8.602761567153864 0 0 0
311 2 18.738296574991985 14.356438496559715 8.324479042596396 0 0 0
312 2 18.278388412565903 15.06029680674947 9.558929527684807 0 0 0
325 1 11.168554009429247 4.82620677200116 1.014866038257342 0 0 0
326 2 10.650684809023817 5.582350605924152 1.4567167806023533 0 0 0
327 2 11.430056144898792 5.240821521180097 0.18605595396022848 0 0 0
328 1 13.763856820993864 5.761429159600796 7.76763276567432 0 0 0
329 2 13.227846988265542 6.44065217904132 8.229625449739022 0 0 0
330 2 13.134843134384722 5.090980895039025 7.434176019763055 0 0 0
331 1 13.669430097090194 11.666504133812266 0.8824438252870445 0 0 0
332 2 13.040567959389206 12.143790687191078 1.3816413258851874 0 0 0
333 2 14.32420652891396 11.230926539447944 1.4440403368124046 0 0 0
334 1 16.079439634753328 13.246079631926731 7.259543824644109 0 0 0
335 2 16.818454275757436 12.778453545388883 7.6734495716950075 0 0 0
336 2 16.412754451222938 13.762134640830611 6.434546118740537 0 0 0
349 1 11.786279746962075 6.343420437038994 4.228476994997546 0 0 0
138 2 12.768484302025762 4.50008040443503 10.70834861040744 0 0 0
351 2 11.788439112448266 5.421626114181273 4.513830154746294 0 0 0
352 1 14.549600760881141 7.897171808812808 11.188566470849908 0 0 0
356 2 14.288348908944956 14.303698327848034 4.8187020880652955 0 0 0
354 2 14.700092039090041 7.188269391482819 11.863440500728323 0 0 0
355 1 14.26673654993712 13.524196325725262 4.230677391308545 0 0 0
375 2 14.369282697818507 7.096794150303019 6.267112554736247 0 0 0
357 2 14.86033491819144 13.691818554541326 3.441561264179816 0 0 0
358 1 17.08184639536487 15.142724995700886 11.198552781987129 0 0 0
359 2 17.495459289841808 14.446029564284501 11.761090537352002 0 0 0
123 2 17.37362846243881 3.184014911595451 4.757990753515785 -1 0 0
373 1 14.887338336688856 7.313681327165257 5.487450930324346 0 0 0
360 2 16.299602467188134 14.732205012732376 10.74298152584881 0 0 0
135 2 9.64999360531197 2.5009532937918295 3.6061506230194698 0 0 0
144 2 15.203998184885268 11.623625126606488 10.397769366986799 0 0 0
141 2 12.512803661735537 9.690108616013374 3.493592081732325 0 0 0
93 2 11.099202858951445 8.452964832579623 1.4150589286914355 0 0 0
285 2 20.132888966721488 12.750803831056896 1.7309030234340095 0 0 0
75 2 15.753326202318986 1.3550337894023514 1.2716824759059797 -1 0 0

Velocities

1 -11.081549428506431 5.345379509724237 1.610155966381502
2 -3.937527725991668 7.622585991892375 -8.070949155199454
3 1.900564250219641 0.9173409011999316 -9.710910912443842
4 -7.23050032905086 5.67975529094186 1.407035187651523
5 9.928965688978481 -8.858269393544408 9.013259177682889
6 0.5205975071478481 7.156504338348662 0.8152839871177873
7 -3.955238512123079 -4.615436881576449 2.9209067855772592
8 -5.754549589337746 8.093567538628234 11.05804032467687
9 2.4499265021733345 -2.6493437798743185 3.4540137296665008
10 -2.6125534339077703 3.443861970004166 5.011587362080727
11 -12.707954834685767 -14.125252875452148 22.835078818604103
12 12.887927425818466 -0.6029109958397784 -2.6636690231590516
25 1.8802421298748715 -1.5344545698052576 -3.026329697238989
125 26.927047473842666 12.924534040951835 -11.865794472567135
27 5.137896242634535 -7.710761504257599 4.650226785441844
28 -0.6532827837374392 2.387181752323491 4.639043622553191
29 -9.214295594150771 -8.934888816664472 5.911930163990164
30 -13.072482585242968 -3.0367584228949953 -2.1423953417804418
348 -4.640564036653808 3.311283296693586 -15.039281491381331
83 0.8786655610204837 6.457291155622237 12.502802080903459
33 3.841248110069726 6.238382818807451 -9.136622694183849
34 0.9078521943716245 3.160478543830106 1.3339803038552036
367 3.1911993912087455 1.502146442145932 0.7607989114567055
204 -16.30102214399614 -1.313445152795374 -8.74261774407387
49 -1.0681501795815063 0.8947388398333345 2.436494234313725
50 10.15858276680949 -10.247348332033816 9.02834843412042
51 4.836691674758618 8.840146593795248 -3.917868554910082
52 0.6211797996405509 -7.91131684727726 1.7449331303931814
53 0.9879995257484901 -9.230585152038516 21.745185667406993
54 5.574860959096502 2.526780084258629 3.0533731747528057
55 -6.438738685179021 5.655801886225422 -1.9856278225203978
56 -12.535232689012487 17.187346646985453 22.397312500904427
57 -19.63837895119086 -26.006631789578616 -7.926123180790913
58 4.685506651674903 -1.8911942796152688 -1.9807487038197744
59 -6.411777334894845 -2.769118824070836 -0.3312075446195046
60 11.412028829125946 -2.9006871064047655 -3.952141211036163
73 1.21606900847766 -3.7584258349194197 2.8177557323531137
74 -5.95622149341714 -6.9866562845567 15.162600142196746
372 1.9513095666007962 5.647359004362075 10.761727940067873
76 2.108585197268354 2.904114028923157 -2.2942284587186776
26 11.610483425869015 7.469092795333112 -4.998093569277352
78 -0.9172250625326862 -12.861624887441296 1.186773238569119
89 2.102774102206177 -13.48975176300132 3.8809963978696147
80 -6.109821435688099 -9.574668014572538 -4.85714667973819
371 -14.427485579884438 -21.638499606671928 4.379964475459404
82 -1.4686372946312285 1.7500704963987783 -1.0551480342594743
369 -7.835233859500948 -1.2307381314104595 -13.623600553092098
193 4.642571530203205 3.6710627474081163 -6.71718386800413
97 -2.521739308396529 1.1947870905002853 -1.833195558972195
98 14.44670058641755 31.824512983781236 -10.463660413359008
99 -6.553416476265519 12.512242455698344 -7.965848156710173
100 -3.0395905547223823 2.958103964978264 -3.4140693050788227
101 18.36191370286589 -22.698935755883074 -5.580801962272077
102 2.0406973212243296 -8.30543431646309 -12.212561244761243
103 1.3566604812985674 1.0277855103934574 -0.6580754863296981
104 13.46761570895036 10.0366165440466 4.80476547440313
105 4.449364865160437 -13.848440460388247 -2.7802126420369886
106 1.477996703023952 -1.383269336929509 -3.76877670282343
107 9.019088781639844 17.40252747932699 -13.40744476325885
108 2.169649840391272 6.810233442300666 10.334805952936387
121 3.1753723776549134 6.5597599676376355 -8.566144268906422
122 5.2826640778668414 1.2054981655099777 -2.798012630539817
368 -25.79599668151006 -4.262509825906893 10.47876133278974
194 -6.736684961502561 -8.881266509024968 8.220709823446601
270 -0.9341851296866717 15.079782444863387 -5.305664132488152