LAMMPS data file via write_data, version 8 Apr 2021, timestep = 0

768 atoms
2 atom types

-0.9075994103905743 30.85094635384532 xlo xhi
0 14.14613878887506 ylo yhi
0 13.531701032155443 zlo zhi
5.110507981759405 5.069941823464124 3.5579213482230774 xy xz yz

Masses

1 16
2 2

Atoms # atomic

161 2 16.323011677609347 2.9599941330035473 11.0783459152892 0 0 0
206 2 16.608491610645945 2.7980472201937627 2.9506536617960615 0 0 0
295 1 7.6492384538032745 4.914770750407402 5.457537565396092 0 1 -1
297 2 8.107208963697403 4.874766288081074 4.578798749433898 0 1 -1
164 2 15.706611746441407 9.071182784863806 4.96894156389382 0 0 0
220 1 6.526967939397026 9.00731390492521 2.013788090786163 0 -1 0
371 2 8.95601536277968 6.697724159020914 11.794468969001619 0 1 0
204 2 2.7965982020373543 5.747114646428211 2.90397356489641 0 1 0
352 1 8.807562758520856 4.574944398911491 2.9788212100750036 0 0 1
150 2 8.04154381788002 5.918329140180235 1.8314373152098338 0 0 1
298 1 13.839149264594418 5.652877962377037 9.173317908465163 0 1 0
101 2 8.369020687251476 6.346189932385725 9.670701552709463 0 0 0
60 2 5.739060435513647 2.2011217998519643 5.351334409166123 0 1 0
148 1 7.942773008985078 6.6328715678312475 1.1722996339995535 0 0 1
342 2 6.358173187030381 2.934842591538648 9.23300365131006 0 0 0
105 2 17.529862236156937 15.685593031501638 8.450055996011717 0 -1 -1
129 2 6.194655258475308 6.871336213295398 13.426134713913175 0 1 -2
106 1 12.358882966531672 6.654198691840409 12.25101264833291 0 1 -1
162 2 17.45597781772221 3.350077723255743 12.165888365965301 0 0 0
230 2 11.847580220188235 0.8176001312906808 1.6123781402225579 0 0 0
58 1 5.840265413402041 2.9677705456463617 4.828236164733909 0 1 0
59 2 6.590105245066007 3.469952420418302 5.210025951904208 0 1 0
149 2 8.787602522253104 6.948733780735086 0.881864462754981 0 0 1
50 2 12.12037187459424 6.429776580408227 3.4377571107905105 0 0 -1
2 2 4.891404827235717 12.318970834282137 0.8345926164783997 0 0 -1
202 1 2.8923975534087383 6.167500601523152 3.7937611649029686 0 1 0
249 2 5.433572105125488 10.946269473913363 6.425819998135235 0 0 0
218 2 11.541247824568805 5.628505829992221 11.05416222857715 0 0 -1
351 2 11.647626397444723 4.428031453267052 1.4562117408210833 0 0 0
41 2 17.222464602758823 7.218120544266826 0.18522256534926776 0 0 1
247 1 6.263105675280756 11.357334143581317 6.110562006650126 0 0 0
170 2 4.171902616731183 3.6451324261901012 5.355026070948622 0 -1 0
353 2 9.542000906118862 4.6427399020250775 2.4127667296266244 0 0 1
219 2 10.826311984736574 6.19287335131091 9.85759258806126 0 0 -1
61 1 9.437171844418094 5.242210583527602 13.02074947649593 0 0 -1
3 2 4.235617293890609 11.038522070756867 1.1813842297406025 0 0 -1
92 2 8.464282447116803 10.076782236372285 12.72748138022881 0 0 -1
324 2 5.773296329012151 14.453176015822999 1.5459340052063628 0 0 -1
65 2 17.917813942340178 14.784412027993328 12.621233773854014 0 -1 0
233 2 20.054682644148304 16.407938276137628 9.109728873557982 0 -1 0
217 1 11.058314814572661 5.327568364696851 10.23270768031944 0 0 -1
257 2 16.308855990409967 6.89654912126017 8.317249705673776 0 0 0
38 2 17.938487738256523 8.899618656066345 6.027977514876211 0 0 0
94 1 14.304274319121072 7.752487892021982 5.233185639107164 0 0 0
1 1 4.267636501046305 11.978512642660906 1.4891809153850963 0 0 -1
212 2 18.614665965302184 10.555380072472635 3.2417526661999707 0 0 0
372 2 9.456389598716024 7.805111309123514 10.906409573065284 0 1 0
125 2 2.350864512818008 7.680362072422403 0.5730342891862651 0 -1 1
140 2 10.817403432099832 7.998475954206837 4.866151617909323 0 -1 1
100 1 8.27400952742057 6.076125599125296 8.70217834818022 0 0 0
63 2 8.704665715338768 4.568360067697793 13.131833095870132 0 0 -1
122 2 7.43610498095887 14.877745186160947 2.822114049946802 0 0 -1
222 2 7.052108594950629 8.212458295278465 1.815708389939491 0 -1 0
64 1 17.416789913767566 15.079939267316371 13.416025815840905 0 -1 0
111 2 12.046025046699558 13.708740954126242 0.6017911449639572 0 -1 1
13 1 14.807230560597844 3.6689980598127345 7.5687914625740405 0 0 0
62 2 10.214011197033257 4.950952242801268 13.517544745855592 0 0 -1
332 2 11.233981770744453 11.757199358522708 11.365083741254084 0 0 -1
723 2 17.799002035385804 6.434157531049952 3.7440118286417507 0 0 0
250 1 15.10123272146705 15.669233674798837 12.775073216050762 0 0 0
368 2 5.407005322311221 4.8767262625285275 9.7952348775872 0 1 -1
102 2 7.40416110861897 5.717247543372765 8.741582245359682 0 0 0
349 1 10.972882036462478 4.66849053025803 0.7555028508706754 0 0 0
81 2 13.730736201899301 12.142770834692026 0.72781714934829 0 -1 -1
85 1 9.224259474720409 3.254780013673176 10.848308819104767 0 -1 0
302 2 11.296035606399858 8.909824261157807 9.49744761951291 0 0 -1
301 1 10.746792508192833 8.629429846998102 10.297364129870965 0 0 -1
103 1 17.62359763445404 14.724928259561036 8.598646526389711 0 -1 -1
6 2 4.663561588246337 3.554304432655264 0.7634925432330386 0 -1 0
303 2 10.686162184810701 9.454628292272321 10.776400619511728 0 0 -1
305 2 14.494665885182595 8.624853547234293 8.394867161195185 0 0 0
239 2 18.287489399240343 9.657256520469474 8.797672567436717 0 0 0
340 1 11.50551634947347 16.141315475357676 9.468662455624294 0 -1 0
333 2 12.051003671928779 10.524695601359923 11.614423546711123 0 0 -1
346 1 9.905402186714904 16.638442443634514 12.267614290930823 0 0 0
110 2 11.142125746585858 14.26958271558752 1.7890252995503757 0 -1 1
331 1 11.190108185715275 10.850145574745643 11.603837661790282 0 0 -1
9 2 9.969533879056431 3.625786892205097 0.34916860026476115 0 0 0
4 1 5.500382515836832 3.9914050840271056 0.833700348938055 0 -1 0
8 2 13.544091590968351 6.558386373167809 13.51456524526574 0 0 -1
5 2 6.09748636196795 3.4651143333546757 1.2960445267219856 0 -1 0
7 1 9.27234524413259 2.9460594203873693 0.4817750066965526 0 0 0
377 2 14.191144340695296 9.61722089199194 12.011047334284866 0 0 0
112 1 15.317407818940666 5.826798181784963 11.434958484282927 0 0 0
304 1 14.40129195021983 7.844699322145527 7.8608487551637785 0 0 0
367 1 6.015239522920639 4.907924899262853 8.994727678544724 0 1 -1
350 2 11.310620583755107 5.497310559277438 0.40908580300349323 0 0 0
113 2 14.821113653400895 6.044040344524896 12.2311867811509 0 0 0
376 1 13.316621680658612 9.302606708427348 12.199695693631105 0 0 0
114 2 15.71652152495237 4.979273815265831 11.713367814767622 0 0 0
66 2 16.601814871275277 15.493778910493347 12.969803154999726 0 -1 0
14 2 14.095912960276106 3.328494255838317 7.024249245526053 0 0 0
296 2 7.135570276130347 5.746166484285843 5.448964501053116 0 1 -1
369 2 5.3473973945700655 5.465826569554475 8.454606117176295 0 1 -1
280 1 19.412679029573003 8.330821035484403 9.612035857783617 0 0 0
109 1 6.588449254591816 0.3593254433169739 1.0210419470695236 0 0 1
87 2 14.398052971667402 16.71667857077575 10.172624610920197 0 -2 0
184 1 18.882418941095963 6.141048586357062 12.969763552660229 0 0 0
277 1 16.501600360117724 6.18283751159453 2.8174430512976865 0 0 0
93 2 7.991939178402717 8.905556073492445 11.731136525290218 0 0 -1
15 2 14.313148878780902 4.314097388656309 8.146603296414082 0 0 0
299 2 14.379226719661425 5.595399795328967 9.977043895390821 0 1 0
107 2 11.662260143625545 6.7479468109698715 12.989054435797051 0 1 -1
160 1 16.74418306400407 3.7551873247582357 11.471574510781338 0 0 0
17 2 16.520138292875874 6.9987108961830575 11.213359068421921 0 0 0
37 1 18.598322734962714 8.165373647890625 6.282825715580796 0 0 0
18 2 17.818991297673946 7.709896444723352 10.568228872214634 0 0 0
231 2 12.967678404369636 1.7933311891868673 0.6079675955876078 0 0 0
104 2 18.577951920915144 14.541676469923305 8.389970548865486 0 -1 -1
205 1 15.649978813898855 2.696949435581186 2.4866044763572943 0 0 0
210 2 17.501636502869484 4.276064771118564 10.18148966828174 0 0 0
186 2 18.279470122206508 6.666041518543364 12.410411710357769 0 0 0
232 1 20.263499613376325 16.23218890576614 10.037464866560319 0 -1 0
354 2 8.318807357152174 3.7056858993806783 2.7844296854984836 0 0 1
48 2 24.802484177033705 17.563850045066516 13.414037830191303 0 0 0
183 2 16.612981794062893 5.734351966948061 5.868230762962202 0 0 0
40 1 21.559396318892645 10.265982371950695 13.349250434158494 0 0 0
207 2 15.476966038105687 3.5676957862644105 2.1049871518682455 0 0 0
208 1 18.13105191184568 4.637763258254043 9.490626819964305 0 0 0
279 2 16.143231668014273 7.056355302762683 2.546666620918908 0 0 0
254 2 15.62959399050115 5.228273798959617 0.5221311295739929 0 0 0
181 1 16.385329579303573 4.860998820485223 5.533576268826166 0 0 0
182 2 15.629072399294198 4.49959115555723 6.121759340644428 0 0 0
256 1 17.187226238123895 6.645442243781058 8.01798427652831 0 0 0
255 2 14.64804640509357 4.160004132604893 0.20020195063004 0 0 0
253 1 14.833169420499866 4.823993003999777 0.8776759878509572 0 0 0
157 1 14.269401509525629 2.8018035923215105 4.88812183777746 0 0 0
185 2 19.29916201510776 5.535053009652774 12.352894737893287 0 0 0
278 2 15.80643899526305 5.915168463083379 3.386911321178226 0 0 0
159 2 14.694432770684474 2.893570375173669 4.034488140453089 0 0 0
16 1 17.16279425268681 7.730846096741168 11.291033677999097 0 0 0
258 2 17.546875401884424 5.887123051119167 8.588767273893321 0 0 0
370 1 8.658818449207706 7.184034873283484 11.036928360770485 0 1 0
80 2 15.288109239950781 12.299687347018192 0.8477726887665974 0 -1 -1
306 2 13.96517951264079 7.0648470990669 8.355356146934987 0 0 0
79 1 14.435662376242771 12.726076852216925 1.0947652957056295 0 -1 -1
246 2 10.815616797136117 5.93041837332126 6.524260789687415 0 0 0
108 2 12.44867389950379 7.610606046160666 12.038096760459098 0 1 -1
300 2 12.91001018216518 5.4850781179214705 9.367477510980448 0 1 0
221 2 6.709874902852348 9.593736204969053 1.3211915269983137 0 -1 0
348 2 10.176328826783195 15.861210377473528 11.775218920885086 0 0 0
251 2 14.817877926683135 16.34766127885993 12.074610798550374 0 0 0
139 1 10.425976507441513 8.663999257937544 4.277653674008407 0 -1 1
468 2 20.07700812324765 9.042263826210277 6.9248509367458775 0 0 0
313 1 6.373765938364564 7.440295323214778 5.740991407948257 0 0 0
252 2 14.661438704790068 14.73558791502004 12.734428835950311 0 0 0
91 1 7.896075829211259 9.871146215360742 11.93829257665493 0 0 -1
195 2 9.041567950978495 4.507370189728732 6.485173958854457 0 0 0
229 1 12.694646086008778 1.3482024301349642 1.4726899473586326 0 0 0
194 2 9.284260032718453 5.153824985471936 7.848248998731606 0 0 0
193 1 9.779191479157854 4.760018230016941 7.045687087596443 0 0 0
141 2 9.488704021393495 8.593793363837692 4.38273186967086 0 -1 1
234 2 19.72827927085561 15.457695628113033 10.385816652707671 0 -1 0
96 2 13.831807868833815 8.526382182325547 4.90190202976465 0 0 0
34 1 10.666715036689105 13.704789254311896 3.2773925498685736 0 0 1
380 2 9.958841927471576 1.5987764422190696 1.2280478177180034 0 1 0
158 2 13.483834542832229 2.1309791842324417 4.873798083031224 0 0 0
167 2 16.04837818229846 10.297024510311942 10.741074695258927 0 0 0
35 2 10.148104729540869 12.795854708963885 3.273693865423057 0 0 1
267 2 12.874820770525837 4.121490875154551 2.9808101078905294 0 0 0
266 2 12.578888989809727 2.7898614481604582 2.2605692726174778 0 0 0
286 1 22.265970939721175 14.447668328210277 9.70223246281269 0 0 0
86 2 9.804571264197984 4.00924086598599 10.545113997355124 0 -1 0
226 1 12.184662347685299 10.865157420079221 5.9214411543893615 0 0 1
77 2 14.064274727564273 4.8507375188104636 4.489840270256982 0 0 0
227 2 12.146840239244884 10.281682402295418 5.164606842608554 0 0 1
82 1 11.46957109676699 9.025908758378383 7.701148641000538 0 -1 -1
166 1 16.4348549949705 10.230264344029084 11.632130809842044 0 0 0
228 2 11.222704461266737 11.11260645931268 6.027671929025991 0 0 1
330 2 12.604229129712436 9.345774527177769 3.1665377879584224 0 0 1
12 2 4.031049540155305 5.649903993779237 6.836329937150438 0 1 0
54 2 5.903738516587266 8.585801299088713 10.289376657120592 0 2 0
120 2 12.924781868751962 7.271755887752192 1.4480361292706043 0 0 1
176 2 7.496332347510503 3.5304540182613033 11.682132496959332 0 0 -1
294 2 9.645604247989649 13.478317492255744 12.746051233580591 0 0 1
270 2 10.863673698233532 3.495295494906143 7.869132611983986 0 1 -1
118 1 13.684947668837216 7.352766297589671 0.8540305866725723 0 0 1
322 1 6.32960434549855 13.857635994961853 2.0290694573597055 0 0 -1
238 1 17.80871337095499 10.464424707982303 8.53592950874966 0 0 0
171 2 3.270960741852649 4.876314007170429 4.986228636119924 0 -1 0
196 1 19.21387430702199 11.155025346105942 11.512625992692767 0 -1 -1
83 2 11.577681212841012 8.211746329808228 7.174503438903242 0 -1 -1
327 2 8.465588435116171 15.027321924918331 9.829019210867632 0 0 -1
334 1 15.36410155422871 14.446136712084888 6.806566344322257 0 0 0
285 2 18.776574411404415 13.732363027456934 1.9945094364348972 0 0 0
39 2 18.203482623917953 7.588485144755954 7.021221612491716 0 0 0
147 2 6.913022632758253 12.425129466819374 1.3046516426945203 0 -1 2
364 1 7.714973709986985 9.750245430409272 4.557706523514265 0 0 1
320 2 8.532717775403965 10.71994274610856 9.62600809020245 0 0 0
344 2 10.015910221500425 3.164643805479219 4.045062792396424 0 1 0
242 2 11.722928281387844 14.048895242611795 12.14589913806503 0 1 0
225 2 9.194496174580225 14.07103106229554 5.7310264827701936 0 0 0
281 2 19.923317940061835 8.340602336841703 10.419124494620824 0 0 0
10 1 4.408956113885487 6.412526256106421 7.32291573443744 0 1 0
56 2 15.596451469358868 11.082142642978503 12.921734200534615 0 0 -1
168 2 16.618500055312474 9.253614001902235 11.607733072060451 0 0 0
245 2 12.12758243332753 6.411981653432755 5.796263106166961 0 0 0
145 1 7.413291862970475 11.758099814129057 0.8198083982897377 0 -1 2
57 2 10.596937188944471 8.549417307326339 0.6114329747679873 0 0 0
328 1 13.43707399377348 9.596508368889438 3.6388221281554873 0 0 1
199 1 12.893533571634425 14.526279490863544 4.673427413629018 0 0 1
28 1 9.634972791572856 11.373911073508376 6.392755003927693 0 0 1
336 2 16.249679438273134 14.421573120556511 7.198904758699369 0 0 0
366 2 7.224603004919626 10.443361315040052 5.005665392797731 0 0 1
287 2 21.604342439279893 15.088796082440508 9.423883797126296 0 0 0
224 2 7.828696711379836 13.983080547910577 4.826717454364476 0 0 0
55 1 9.980698119016411 7.9335319121611825 0.0593692816815199 0 0 0
216 2 21.105836302853692 12.458912771953585 9.14392257828808 0 0 0
329 2 14.104801761169616 9.303143865829952 3.012780409381495 0 0 1
33 2 11.5908732256083 14.418495192946265 6.533211427310408 0 0 1
312 2 11.682156962806054 1.9517869562061152 4.82719763112533 0 1 0
335 2 15.370186508035722 15.114629537510197 6.071803538410194 0 0 0
97 1 7.1977952851768805 2.48487454209643 2.4236403757547924 0 -1 0
268 1 11.71263311990307 3.125432941509267 8.254254732643487 0 1 -1
98 2 6.698888045259067 2.426988207574805 3.212032261176918 0 -1 0
310 1 17.417027266355383 15.41683757759216 5.143645355485563 0 0 0
273 2 12.962963120122222 15.522351897335138 8.860123647936351 0 -1 0
197 2 18.341604785062597 10.78138245714499 11.516669257952788 0 -1 -1
241 1 10.97058001012642 13.859670207325808 11.603533611504393 0 1 0
345 2 9.910939594098302 1.7018166556963665 3.6056132678858694 0 1 0
319 1 9.242381956546946 11.34317893617738 9.33458582924057 0 0 0
272 2 14.406532316191262 15.21912431766884 8.242504618121316 0 -1 0
264 2 19.662307357356696 12.925634754996274 7.392370829740401 0 0 0
142 1 11.342903391015222 13.222201305804056 9.140225768988076 0 0 0
263 2 20.71567550702371 14.082240591109953 7.433584589525601 0 0 0
121 1 3.011418967427532 1.1912003872290697 3.413068033085703 0 1 -1
269 2 11.567267799969983 3.333074999535549 9.225874232953725 0 1 -1
341 2 10.571107576730695 15.842883491308655 9.196215670372283 0 -1 0
215 2 20.17972554953525 11.71627589231591 10.011345464964704 0 0 0
271 1 13.844527187400283 15.159622884129764 9.026831457584612 0 -1 0
262 1 19.992447079400865 13.6646665501755 7.965391549558029 0 0 0
169 1 3.482408124587975 4.215720480543168 5.702538652724635 0 -1 0
192 2 21.324832309010237 14.181791620017341 12.839442670631003 0 0 0
214 1 20.906561925009523 11.575331596006086 9.390640749351437 0 0 0
240 2 18.11543878316945 10.626383862206774 7.6495188388015185 0 0 0
321 2 9.257635278533343 11.137731053746643 8.368322666276722 0 0 0
343 1 9.880497573458108 2.2367159530275336 4.4121436524906565 0 1 0
153 2 13.848359488335568 13.221314300746544 11.488834788983345 0 -1 -1
722 2 18.651870693137166 7.132567405460564 4.854892302765261 0 0 0
291 2 5.1792941048497925 8.265091466378436 3.3245535375399884 0 0 0
173 2 7.4896483322067855 9.12807688907515 8.382283185504381 0 -1 1
51 2 11.239924455960637 7.5821657247186796 2.8593164558033526 0 0 -1
200 2 13.48822128385638 15.303925828098823 4.55204031917401 0 0 1
88 1 15.154132518220838 10.172016267628923 9.143307337115408 0 0 0
198 2 19.267589112400117 11.311874400787083 12.457931056552274 0 -1 -1
84 2 11.77441712756252 9.73317868061792 7.050360410226914 0 -1 -1
152 2 14.060836279095833 12.718866037066883 12.852964459463486 0 -1 -1
311 2 17.29941596149015 14.526777245089683 4.754426553487592 0 0 0
359 2 17.485259789604765 11.992831674846778 9.4625258153816 0 0 0
265 1 12.113650254102138 3.5626806773307163 2.7513724565220268 0 0 0
209 2 18.051903666099076 3.920028365750875 8.833211128389703 0 0 0
72 2 14.098065324458592 13.476310199013472 9.383243052285696 0 0 0
42 2 21.274023357995226 10.727155243152774 12.544783390738605 0 0 0
177 2 6.753582263990371 4.797221513189129 12.385638675395894 0 0 -1
190 1 21.35145914851705 13.28000628716294 12.593538470548024 0 0 0
223 1 8.306873143267346 13.571035286323816 5.573255074592808 0 0 0
191 2 22.279351070756718 13.174690586443182 12.386796589009828 0 0 0
382 1 9.532014501152531 11.310931410526214 2.837459806981762 0 0 1
19 1 17.08732400022909 12.995317786575686 4.376851022672866 0 0 0
20 2 16.200488929821244 12.706458806228891 4.177204640656919 0 0 0
21 2 17.65080993101621 12.85167615891384 3.637481826840074 0 0 0
379 1 10.246688135130928 0.8771390109684755 1.8731416537546342 0 1 0
43 1 21.361302650236844 15.231460645909664 6.3490025712055385 0 0 0
381 2 15.048893583311926 14.145240512775871 1.5390991905389362 0 0 0
67 1 14.690688120982838 12.44535984276707 3.7390729092055914 0 0 0
68 2 14.16851737755076 11.647147105883503 3.999228461706911 0 0 0
69 2 14.474321175226576 12.488550942441572 2.7838158350260884 0 0 0
119 2 14.073081489930265 6.424364917216961 0.9110934445921256 0 0 1
146 2 8.073756967775433 12.169001855322138 0.2091473309538094 0 -1 2
360 2 17.154417163710548 13.521024874098785 9.321441078538001 0 0 0
115 1 14.951541225097156 11.605442579554383 6.818855627052241 0 0 0
116 2 13.966626796547429 11.540519921598234 6.732306787327264 0 0 0
365 2 7.252313226010568 9.569450100890599 3.6795871184795237 0 0 1
136 1 4.1120116383917695 6.760920454017877 0.7697853320202512 0 0 1
144 2 10.80743016120663 12.39054205104311 9.029807619866304 0 0 0
383 2 8.878076914543955 11.613264413612923 2.1261519280735106 0 0 1
163 1 16.375737681648356 9.745936956376202 5.2649615588862915 0 0 0
178 1 7.05384839872773 13.401330234398078 8.088901437582487 0 -1 1
165 2 15.843358680185599 10.476937901374276 5.6831688296692215 0 0 0
187 1 18.865251973843367 11.858339724987298 6.3307132314969214 0 0 0
188 2 19.32762573904399 11.23804429575844 5.763187593020428 0 0 0
189 2 18.53883435084478 12.513269509654455 5.680914692907259 0 0 0
30 2 9.318895674819462 10.568402299388667 5.952529278100313 0 0 1
211 1 17.720076164023826 10.619985195328246 2.904505817903152 0 0 0
213 2 17.17152305018299 10.166908349934861 3.6223954470831483 0 0 0
235 1 15.316677022340578 8.91301123693049 1.886167623375232 0 0 0
236 2 15.609014697183682 9.6261045698568 1.2735156737453823 0 0 0
78 2 13.982386496747283 6.386676604487004 4.507243090763496 0 0 0
260 2 17.598440256978446 12.429321206662229 0.22154341305616598 0 0 0
47 2 24.11987986213863 16.38160610608657 12.507930959860898 0 0 0
259 1 16.92079535710722 11.938040916846056 0.7142993371692757 0 0 0
117 2 15.115409425120301 12.547516744459415 6.702229021365838 0 0 0
261 2 17.313663105265505 11.397307351684214 1.4428979989484276 0 0 0
283 1 19.25856781116523 13.10318088183735 2.5950850706366833 0 0 0
347 2 10.789782600589085 17.115750266496427 12.371048704377667 0 0 0
127 1 5.903053003461085 6.233578204731849 12.795193535823728 0 1 -2
307 1 11.230357122306952 9.709077313027889 1.619479643322185 0 0 0
89 2 15.930643398002957 10.58781406316236 8.65245797366003 0 0 0
309 2 11.650563732311477 10.391570230712878 1.0962539222975043 0 0 0
29 2 9.03997252004386 12.095504049444665 6.05045046734523 0 0 1
49 1 11.753033547444797 6.798966841543641 2.631637275913798 0 0 -1
175 1 7.130961399258231 3.8822636926149228 12.49286317471399 0 0 -1
326 2 8.4719319881416 15.85490073341017 8.477715554450198 0 0 -1
358 1 16.884234377825532 12.705049830467988 9.811313555841867 0 0 0
289 1 4.5167655918161085 8.415962378627258 3.9743399231816263 0 0 0
22 1 19.037750489671662 14.250480155064272 11.2066973614401 0 0 0
23 2 19.77862132868067 13.668875135806445 11.571091376660577 0 0 0
24 2 18.409578107326958 13.665346093762283 10.79124844600641 0 0 0
143 2 12.259460955082979 12.880978854799796 9.189625654651545 0 0 0
46 1 23.9665009196062 17.056780778281748 13.226172280686267 0 0 0
70 1 14.262256276963042 12.698964763630885 9.939408654397925 0 0 0
71 2 15.252972694112671 12.496019719946371 9.791735083976537 0 0 0
325 1 9.010701341829076 15.26515284211535 9.012851375152525 0 0 -1
130 1 8.638590129506529 8.307671675332612 7.282134994049156 0 0 1
151 1 13.710095802282506 13.522914554207828 12.449926216904435 0 -1 -1
201 2 13.548789515890963 13.852898160826149 4.418653148279112 0 0 1
323 2 5.849074318938981 13.564763296550732 2.8303038353113736 0 0 -1
131 2 9.50998967377701 8.682592481358034 7.36494286543186 0 0 1
76 1 13.79309133472149 5.563554793779154 3.9637455439534572 0 0 0
274 1 1.5204504456705092 4.4085401271101 1.5633749925629234 0 0 1
32 2 10.447147464024718 14.38746836040673 7.593254005616014 0 0 1
74 2 -0.21655184193680055 1.3732259444625947 0.06257318488830194 0 0 0
243 2 11.211583878739468 13.679489560259563 10.65520099704558 0 1 0
172 1 6.846320418565306 9.608082736525878 8.938336231916782 0 -1 1
99 2 7.256018537801921 1.5965220197326924 2.0460310419294885 0 -1 0
384 2 8.909823485617565 10.963292114668779 3.5986331392803392 0 0 1
174 2 6.122522939205636 9.940638401307956 8.411609828936871 0 -1 1
284 2 19.651280538444016 12.46188533794096 1.9712741435509045 0 0 0
315 2 5.821114748009843 8.046854767116857 5.265344842412519 0 0 0
314 2 7.129387243835337 7.984523318759724 6.104567148626002 0 0 0
292 1 4.115110370964422 9.679790193149797 0.04660745674336564 0 0 2
180 2 7.547208439756462 13.899229842676071 7.373252341233177 0 -1 1
123 2 3.863936105293246 0.9944779425914814 3.100410498055775 0 1 -1
90 2 14.374729936913848 10.78198907892234 9.079707630088768 0 0 0
44 2 15.609461862311495 1.7369617929886498 6.041207659051332 0 1 0
308 2 10.624034344902787 10.20080241142399 2.192908825325197 0 0 0
137 2 4.874406370507946 6.1256221416000525 0.8284921454372204 0 0 1
31 1 10.657880525504952 14.647287172857352 6.691711303485503 0 0 1
378 2 13.067049848006008 9.64552343379987 13.099238991039405 0 0 0
36 2 11.25059391592344 13.984146183486251 4.02894354083507 0 0 1
317 2 1.6958951850677848 2.4171819108980963 4.078064383997146 0 0 0
459 2 15.641729662534402 1.5753300346603263 1.165102773555214 0 0 0
244 1 11.280456642876466 6.758188781012979 6.108218725386207 0 0 0
138 2 4.666488543844804 7.577374773241975 0.6483918976497662 0 0 1
95 2 14.36063385282113 7.855603601204288 6.225909285790296 0 0 0
237 2 14.814846624404112 8.212714334664438 1.3232761598134546 0 0 0
132 2 8.642179819490694 7.478235041754412 7.918990837778644 0 0 1
128 2 5.670738790066691 6.738189192666211 11.963701641640652 0 1 -2
290 2 3.8126968232024225 7.754513949775611 3.9041910183512885 0 0 0
155 2 7.147436085926378 11.594512541215904 11.165785204362573 0 0 0
248 2 6.657779274561738 11.936595425402484 6.831639467675332 0 0 0
26 2 4.203307215430594 3.9235854289647714 11.40790857038244 0 0 -1
293 2 8.241119069229887 13.104763190708104 13.475604538913155 0 0 1
11 2 5.147261530490132 6.840122220381445 6.713349779932504 0 1 0
282 2 19.93420199408857 7.721099663579528 9.03250902773666 0 0 0
25 1 4.0462128887406115 4.765335099302347 10.965010084159918 0 0 -1
507 2 17.497654974148436 3.612374715682475 4.610586230465633 0 0 0
179 2 7.707998359844458 13.012981963928482 8.707079693096412 0 -1 1
363 2 5.485357033146654 12.622731159242 5.125819622744747 0 0 -1
465 2 18.087666849803558 8.895493122154283 1.6665327269244115 0 0 0
52 1 5.448864017506716 8.282729180851188 11.04901379957387 0 2 0
467 2 20.547268559134185 10.118162288351565 8.015331008315377 0 0 0
732 2 23.259052336307242 14.880120640661374 10.853954330218164 0 0 0
45 2 21.344813374683266 14.584808616580702 5.640708714906479 0 0 0
374 2 4.032747725137657 10.051428105295226 4.10114253232244 0 1 0
338 2 2.2329738603856484 3.3519120449078637 6.778974848876623 0 0 0
461 2 17.684700926231514 2.1111585191350275 6.993374952549404 0 0 0
361 1 5.229846423307864 13.396626477181014 4.595940153183895 0 0 -1
385 1 22.44851922263921 5.1501950709949735 4.009393190546439 0 0 0
386 2 21.93715989670967 5.994790357902769 4.199871105090968 0 0 0
387 2 21.791316377718033 4.583685483138538 3.557016528050561 0 0 0
409 1 26.183422272522833 7.9949250953787585 6.466424676222767 0 0 0
483 2 19.200181567527274 3.954291065277808 6.516481379975067 0 0 0
425 2 37.30643678026392 10.818741031595193 13.216239159308367 0 0 0
724 1 21.76562011614119 8.081977275567137 11.22352145171477 0 0 0
433 1 20.16674575215717 3.7059232091211287 2.9330798830862803 0 0 0
434 2 20.474565534169606 2.869552939510148 2.5079582513896983 0 0 0
435 2 19.819596199169787 4.186607877185388 2.1877486768735563 0 0 0
602 2 21.099207813547427 0.7642213178459396 1.7911521086067854 0 0 0
694 1 33.141111062302095 15.650817512541805 8.31417916562807 0 0 0
677 2 22.221507182636028 8.788217490673313 8.006565774937368 0 0 0
481 1 19.781052720590136 4.6533908478316395 6.176325100474571 0 0 0
482 2 19.366153623631433 5.005906893019496 5.320915716859911 0 0 0
650 2 25.177284413329243 6.230489830383686 3.3225146350389125 0 0 0
505 1 17.908132241067214 2.9998781180752223 3.9555126686912847 0 0 0
506 2 18.76181911908307 3.3299102651652794 3.5369482614789387 0 0 0
529 1 21.521641754624685 2.281992121396573 5.012559367109959 0 0 0
530 2 20.84360754193837 2.950712421564279 5.246370399849326 0 0 0
531 2 21.869230276525688 2.4445296309883906 4.023207032650832 0 0 0
553 1 23.608751869714744 4.270891258202595 6.493326460826451 0 0 0
554 2 23.155987984140353 4.450333759146635 5.676923017936731 0 0 0
745 1 21.557747302442323 7.59849686315003 4.942098181844239 0 0 0
577 1 23.13390200733029 2.3947287158335215 2.8042896639859682 0 0 0
579 2 23.003472468886713 3.192892848889207 2.2385044173786794 0 0 0
601 1 20.481514677513637 1.4733935516543326 1.455544449576929 0 0 0
666 2 35.843717893387456 8.139208630486564 10.08545383849961 0 0 0
603 2 20.86676147896787 1.7638737955327215 0.5682192790985574 0 0 0
410 2 26.889488054600598 8.354871499412607 6.958227161064271 0 0 0
625 1 22.26758267953008 4.6967210991231045 0.8701216177507514 0 0 0
627 2 21.694969485337207 5.456914176747111 1.0814912401648236 0 0 0
649 1 24.59597934019206 6.083763800758835 2.5420527184824073 0 0 0
578 2 23.09383119260317 1.6513544369471373 2.111400751674374 0 0 0
651 2 23.758457511320962 5.688740960106342 2.9069719153306695 0 0 0
673 1 20.343076269911425 6.758640223094797 2.0469141365238315 0 0 0
728 2 20.81030737207006 13.131748370473195 3.584261184695076 0 0 0
675 2 19.89350847950554 6.7186358373352695 2.9946333420209066 0 0 0
697 1 18.402182954025193 4.764598587904457 1.0709276409410513 0 0 0
593 2 32.60829537374406 4.245116548833427 10.046053374015695 0 0 0
75 2 30.756956825695127 1.589434958598755 1.4001131028963247 -1 0 0
746 2 21.616141741673253 7.171802210138403 5.830563634577459 0 0 0
721 1 18.69817114964297 6.368208748738139 4.209901144525683 0 0 0
626 2 22.989091137348343 5.187375250939685 0.394317256597295 0 0 0
362 2 36.011127029557635 13.411128392414428 4.352086021761794 -1 0 -1
411 2 25.819963917354137 7.348524070836706 7.042946099630319 0 0 0
678 2 22.60183189915321 8.2980581163371 9.426377443863206 0 0 0
388 1 24.645964691998735 6.895230657245003 10.970614517655426 0 0 0
389 2 24.488602734566193 7.818480419488733 11.236786294197746 0 0 0
390 2 25.051387294178024 6.489189453462315 11.785179146337034 0 0 0
412 1 28.742653260652695 9.817191140788317 12.66759572316384 0 0 0
154 1 38.31042020942411 12.259164767781993 10.931065280593426 -1 0 0
436 1 22.594417438208534 5.577784718909721 9.705004937526711 0 0 0
437 2 21.770508791528233 5.301454557495684 10.187228797421781 0 0 0
438 2 23.196190762729056 6.046148184166351 10.288522673296782 0 0 0
275 2 32.94446383481801 5.309676456103855 1.3877667582363564 -1 0 1
654 2 27.56319799644581 7.850547673905352 10.061665131511775 0 0 0
748 1 24.4345332531471 9.409901000966856 12.237061915519265 0 0 0
485 2 17.961066295138252 3.3813510902736077 0.09291030895975023 0 0 1
484 1 22.85773212819992 6.283655734069481 12.896192962839653 0 0 0
508 1 20.5880143050382 4.555704084056418 10.772729081866546 0 0 0
510 2 20.870546260071183 3.7151253848318087 11.243074579720382 0 0 0
558 2 26.85055757992921 7.015303674047705 13.279644798157337 0 0 0
532 1 24.126227861060524 3.821225124948068 11.93435655768004 0 0 0
533 2 23.73850936787506 4.58895100606995 12.36236888139792 0 0 0
126 2 33.453043787957355 8.795517561323722 1.3586654140229393 -1 -1 1
556 1 26.588925694843685 6.2164931113415225 12.77897727003496 0 0 0
557 2 27.33144289194584 5.8194000240781225 12.284032131173744 0 0 0
580 1 25.6495942496801 4.366165023393295 9.596409681623664 0 0 0
581 2 25.03128750213755 4.2643679749602255 10.3359769426732 0 0 0
582 2 25.276737276222637 5.130087253848349 9.052084138067984 0 0 0
630 2 24.28692902501589 5.504647892761849 7.303420022423493 0 0 0