LAMMPS data file via write_data, version 15 Apr 2020, timestep = 0

6144 atoms
2 atom types

-1.3201296915212026e+00 6.1288418822702695e+01 xlo xhi
0.0000000000000000e+00 2.7994057464203621e+01 ylo yhi
0.0000000000000000e+00 2.7055498356335640e+01 zlo zhi
1.0144446358272560e+01 1.0170373600554896e+01 7.1030046847638033e+00 xy xz yz

Masses

1 16
2 2

Atoms # atomic

1595 2 1.9336256155739346e+01 1.8814391950329185e+01 1.4699394328987939e+01 0 0 0
1604 2 1.6285164575812544e+01 1.9477278757012506e+01 2.3477878145159373e+01 0 0 0
1020 2 2.0126618426632486e+01 2.5986333837616090e+01 3.0069286441041405e+00 0 0 0
987 2 1.5018490620436580e+01 1.4024436177362922e+01 1.8331458153148361e+01 0 0 0
225 2 8.4272372893368299e+00 4.4912741257605298e+00 2.8561725549349424e+00 0 0 0
52 1 1.4440934327444836e+01 2.5510266325889777e+01 9.9103838334819141e+00 0 -1 0
25 1 9.7717469360730203e+00 1.3135072144431396e+01 9.5453597713057583e+00 0 0 -1
1625 2 1.2985204842968940e+01 1.8987579325449932e+01 1.6828410605110580e+01 0 0 0
2464 1 1.2795670608131033e+01 1.5896609982152341e+01 5.5452171654196292e+00 0 1 0
886 1 1.8854269473401473e+01 2.2630480695924920e+01 1.8573290710356012e+01 0 1 -1
1633 1 1.8242598897008648e+01 1.4503470414018963e+01 1.9131678073404501e+01 0 0 0
849 2 1.4977208169704362e+01 2.0872307901579529e+01 9.3622115147759697e+00 0 0 -1
2443 1 1.3596143342388890e+01 1.2546778141722038e+01 1.0158456384187705e+01 0 1 0
358 1 1.7714712936793340e+01 2.5033725782583932e+01 2.3928094460950934e+01 0 0 0
2466 2 1.2657733907138118e+01 1.6847011480507224e+01 5.4072344006314621e+00 0 1 0
1895 2 1.2276193542509674e+01 1.2861307964032006e+01 4.6361533983935335e+00 0 0 1
1670 2 1.7167365941525730e+01 1.1846082647409851e+01 2.6853960874615765e+01 0 0 -1
1634 2 1.7974694219959993e+01 1.5053011054869469e+01 1.9888211480737628e+01 0 0 0
1064 2 2.2145016427900455e+01 2.8943013011069500e+01 2.0754375096731454e+01 0 0 -1
1894 1 1.2176202482313908e+01 1.2614748193823340e+01 5.6015469773005222e+00 0 0 1
1740 2 1.7803000622190517e+01 2.1808311911098038e+01 2.5855680323867816e+01 0 0 0
1916 2 1.7521651465127295e+01 2.5290501617866699e+01 1.6829535715483011e+01 0 0 0
611 2 6.8519630085414533e+00 5.4489499143008056e+00 1.3776655704342929e+01 0 1 0
1709 2 1.1212228979535723e+01 5.0759368709204926e+00 1.7046019971845226e+01 0 0 0
487 1 1.8023576195329717e+01 2.5688451172772059e+01 2.6513281838660433e+01 0 0 -1
53 2 1.3698220516360538e+01 2.5068634913348788e+01 9.4135233059945591e+00 0 -1 0
1587 2 1.3580817562828285e+01 1.5239229073179237e+01 1.2264178631605368e+01 0 0 0
1586 2 1.2418723759410323e+01 1.4992690016420866e+01 1.1197865879369992e+01 0 0 0
1675 1 1.0166979214064273e+01 1.6640623120275766e+01 1.6157169424652668e+01 0 0 0
2564 2 2.0276581483313187e+01 1.9293829541544387e+01 2.5952054765976417e+01 0 1 -1
655 1 2.1532223072443710e+01 1.4698738060319531e+01 8.9064417445530584e+00 0 0 0
1871 2 1.7051766666097190e+01 2.5279270875889374e+01 1.9881258018112316e+01 0 0 0
610 1 7.4892010358019228e+00 5.3754775422523391e+00 1.4473192187084610e+01 0 1 0
1275 2 5.7636717377736737e+00 6.6282703897845208e+00 8.9486044051767843e-01 0 0 0
1693 1 1.6713793884305474e+01 5.9045191695960169e+00 5.5783557801156549e+00 0 0 0
203 2 5.9826244644494029e+00 6.3864216780284577e+00 1.7321505881439926e+01 0 1 0
1708 1 1.1643473900324370e+01 5.2495574384796644e+00 1.6195211291170686e+01 0 0 0
27 2 9.6864098154351268e+00 1.4107715348305543e+01 9.5815164242641391e+00 0 0 -1
907 1 2.0290762771754913e+01 2.4706791432374114e+01 2.3318967817156526e+01 0 0 -1
99 2 9.5725646640159638e+00 3.6460704276458538e+00 4.7635248945784925e+00 0 0 0
1561 1 1.3184656711834934e+01 1.5344856437132666e+01 1.5548624289066225e+01 0 0 0
1901 2 1.1937508397755501e+01 6.9346792492629330e+00 2.6000728736669103e+01 0 0 0
1656 2 8.6513040271205597e+00 2.4750620341056216e+01 1.0609120534418652e+00 0 0 2
1521 2 1.6522102266438949e+01 1.1828477228549932e+01 2.8479293673459267e+00 0 0 0
924 2 1.7969541835910668e+01 2.1485677349615322e+01 1.0204230404653545e+01 0 0 0
19 1 2.1567603731037970e+01 8.0666913912335492e+00 1.9992119398921012e+01 0 0 -1
224 2 7.3894639803030220e+00 3.6996812779967456e+00 3.6577252393805990e+00 0 0 0
1781 2 1.5745284046666733e+01 1.3549663497413139e+01 1.4689963309207741e+01 0 0 0
1710 2 1.2493327301355897e+01 4.7538929630798483e+00 1.6067195815527093e+01 0 0 0
1689 2 9.2842566272913487e+00 1.0620101504343836e+01 1.2704483658444602e+01 0 0 0
1705 1 1.7006294495528024e+01 1.6030914048728494e+01 1.3821657467644476e+01 0 0 -1
1773 2 2.0425378179003978e+01 3.1057816417256767e+01 2.6140855278868688e+01 0 0 -1
101 2 5.9087557286959900e+00 8.3477130284351677e+00 8.4120843556768818e+00 0 0 0
1570 1 1.7912939506533537e+01 1.5625338054375366e+01 1.6277461127198528e+01 0 0 1
2314 1 1.7897744746635020e+01 2.2552336776399123e+01 8.5946619706195850e+00 0 0 1
1129 1 1.3640000036334666e+01 1.4684542191397799e+01 2.3457137649989598e+01 0 0 -1
2321 2 1.1014278205941949e+01 1.6348362819604112e+01 2.2339200001209253e+01 0 0 0
1635 2 1.7412165399118809e+01 1.4414483006522579e+01 1.8618507991246087e+01 0 0 0
1017 2 2.0528447732739842e+01 3.0977876809774614e+01 1.4243035289826219e+01 0 0 -1
632 2 9.3989987455919106e+00 1.4658362652244314e+01 1.5032990001671196e+01 0 0 0
821 2 8.9630784581710508e+00 1.7917515487903550e+01 6.3964641473744177e-01 0 0 0
1059 2 1.2273384402364929e+01 2.6672501947356764e+01 2.8875517919359059e+00 0 0 0
896 2 1.9712585809753744e+01 2.8344538775830287e+01 2.3212156445663251e+01 0 0 -1
72 2 1.1082792439292385e+01 1.8339776315959167e+01 9.1152765220170213e+00 0 0 0
944 2 6.0543100033444359e+00 1.4319856032289472e+01 1.4880654142203205e+00 0 1 0
1571 2 1.7908145352216490e+01 1.4652250487995172e+01 1.6289067930892521e+01 0 0 1
1659 2 1.8640295064381693e+01 2.8903688052576204e+01 1.9393451794165298e+01 0 -1 0
894 2 1.3051945508200403e+01 1.9685464663011164e+01 9.9354689906051110e+00 0 0 0
2411 2 1.0062682073477028e+01 2.8270293135697749e+01 3.7160881447590977e+00 0 0 1
1274 2 5.8678622634204851e+00 7.1049488198278485e+00 2.3489853954587612e+00 0 0 0
1113 2 1.2869499594896460e+01 2.2720618397118528e+01 1.0855928646536299e+01 0 0 0
1669 1 1.6886400630366985e+01 1.2827709757745385e+01 2.6840638351030961e+01 0 0 -1
1063 1 2.1702418820371072e+01 2.8110500837427796e+01 2.0625004467923837e+01 0 0 -1
1671 2 1.7631184003316015e+01 1.3339998374378677e+01 2.6495368659108372e+01 0 0 -1
1791 2 5.1916442280454049e+00 7.2009005772606436e+00 4.7883059793420255e+00 0 0 1
1001 2 9.4186318209703863e+00 1.2763092880475590e+01 7.0779067935137467e+00 0 0 0
846 2 1.4502769606454123e+01 1.6296578756023397e+01 2.2894133029484859e+01 0 0 -1
2331 2 9.0716333574709012e+00 2.2830076544067968e+01 4.6027368690383712e+00 0 0 0
1739 2 1.6615082317395363e+01 2.0880325444550223e+01 2.5517183168454430e+01 0 0 0
822 2 1.0375485581980406e+01 1.7777375157900845e+01 1.4594772339081474e+00 0 0 0
2520 2 2.9199343887132436e+01 3.0264813153857347e+01 2.2757996614591470e+01 0 0 0
1112 2 1.4412875601413811e+01 2.2853616167264661e+01 1.0578394993606622e+01 0 0 0
887 2 1.8666209902906019e+01 2.1925514190368233e+01 1.9197810288189974e+01 0 1 -1
2465 2 1.3783088162992524e+01 1.5769035584082500e+01 5.5435363338528605e+00 0 1 0
54 2 1.4103064961135397e+01 2.6336494230753836e+01 1.0189038623760354e+01 0 -1 0
336 2 1.2617793741891731e+01 2.1485304727600052e+01 1.8891644093349406e+01 0 0 0
223 1 8.1961292346217345e+00 4.2071099706913371e+00 3.8079146809483144e+00 0 0 0
1917 2 1.5992490908684474e+01 2.5922160990898917e+01 1.6633741400272271e+01 0 0 0
353 2 8.7054606323663961e+00 1.0460012571087807e+01 1.0004460809165623e+01 0 0 0
2407 1 1.0860218436301288e+01 1.4538847526097486e+01 7.0151292137848547e+00 0 0 0
1687 1 9.0014429636124635e+00 9.7124176312115029e+00 1.2924271752795992e+01 0 0 0
986 2 1.5678471090561764e+01 1.3612016319957343e+01 1.7034285593423647e+01 0 0 0
1706 2 1.6182760071203937e+01 1.5641078355646702e+01 1.3503032991546046e+01 0 0 -1
1703 2 1.0720175512600671e+01 1.3147334579932870e+01 1.6076060527318017e+01 0 0 0
1374 2 2.0025389587263650e+01 1.9436662915592105e+01 1.3230331216482227e+00 0 0 0
1688 2 8.1932610197807954e+00 9.6347565020182913e+00 1.2387365807006672e+01 0 0 0
1002 2 8.9556272703097370e+00 1.1279045663167590e+01 7.2610404692328494e+00 0 0 0
1610 2 8.0264935346847022e+00 1.5312101263956931e+01 1.5893043844377848e+00 0 -1 0
922 1 1.7926761503402748e+01 2.0964535186891624e+01 1.1054121807318957e+01 0 0 0
2409 2 1.1304760835114328e+01 1.4495844284099398e+01 7.8974798445646996e+00 0 0 0
845 2 1.5524157587228906e+01 1.7516821264468028e+01 2.2865939909654212e+01 0 0 -1
1563 2 1.3047941060288368e+01 1.6244428755229283e+01 1.5259772843751604e+01 0 0 0
908 2 2.0527011797379686e+01 2.4378975520926510e+01 2.2389541131315688e+01 0 0 -1
893 2 1.1680388383874229e+01 2.0422911242603000e+01 9.8331057468821772e+00 0 0 0
28 1 1.8885109080267661e+01 2.2303325236583870e+01 1.4883728756906853e+01 0 0 0
2652 2 2.8210384837867931e+01 2.4348572222191770e+01 2.3573802299678714e+01 0 0 0
870 2 9.0580600825425179e+00 1.5376186502484664e+01 6.9479219617512475e+00 0 0 0
300 2 1.0059635202118463e+01 1.7725962030517625e+01 7.1238526353137672e+00 0 0 0
1585 1 1.2769510533437884e+01 1.4685535338079760e+01 1.2082504003813689e+01 0 0 0
2414 2 1.0849348079866994e+01 1.7847314914098387e+01 1.2458125733292828e+01 0 0 1
2436 2 2.2440856301203052e+01 2.2638567004187621e+01 1.1928337001072693e+01 0 0 0
2441 2 2.0018229614522443e+01 2.0302766907384427e+01 8.4446877754335361e+00 0 0 1
847 1 1.4730409024396288e+01 2.0014834727314852e+01 9.7587392985596111e+00 0 0 -1
1562 2 1.2316367623024275e+01 1.4922266521980578e+01 1.5336091738216382e+01 0 0 0
1015 1 1.9972003452296583e+01 3.0342609840281948e+01 1.4757449276136109e+01 0 0 -1
1738 1 1.7015234333622296e+01 2.1771182409352999e+01 2.5285548331470608e+01 0 0 0
949 1 2.3691782584487655e+01 2.2226683502961055e+01 1.3490559989373498e+01 0 -1 0
30 2 1.8137570427940123e+01 2.2420675780508176e+01 1.5540015700842060e+01 0 0 0
1538 2 1.0741121230666563e+01 1.4169057572727294e+01 1.8808929903855887e+01 0 0 0
218 2 1.1466288746445269e+01 2.3538887844408478e+01 9.3618460451405952e+00 0 -1 0
150 2 1.9578532319356107e+01 3.3759911832468291e+01 2.4337323776354868e+01 0 -1 -1
2440 1 1.9233758269729304e+01 2.0388428664077509e+01 7.7696457353394317e+00 0 0 1
98 2 9.7619284064362137e+00 2.9724347993209794e+00 6.1282046332210625e+00 0 0 0
2408 2 1.1469610558509929e+01 1.5169728865118822e+01 6.5506949645409751e+00 0 0 0
369 2 1.5288055422048487e+01 1.1269312808706275e+01 1.3690438254522046e+01 0 0 -1
1065 2 2.2318888671323599e+01 2.7446308294096525e+01 2.0267279240346362e+01 0 0 -1
1130 2 1.3830182599126761e+01 1.4625471218206858e+01 2.4387222813482904e+01 0 0 -1
2355 2 2.1430363369507333e+01 2.3605644029767433e+01 2.0272991009791561e+01 0 0 0
962 2 2.4595336007518007e+01 3.0085695723347026e+01 2.2679945658703438e+01 0 0 -1
888 2 1.8039720439193367e+01 2.2607708841679617e+01 1.8064697509726493e+01 0 1 -1
1135 1 1.1522631731248415e+01 9.1250625514680763e+00 2.2739185187279141e+01 0 1 -1
299 2 1.0226682547140246e+01 1.8571967280003616e+01 5.8994356114108237e+00 0 0 0
626 2 1.6069506999646340e+01 5.8838417704652963e+00 3.8879993295327337e+00 0 0 0
873 2 1.3101874327169931e+01 1.5097417384609347e+01 1.7434528403166727e+01 0 0 0
292 1 5.7757808314950640e+00 1.3398862512508044e+01 7.0653174739138445e+00 0 0 0
2311 1 1.9028890420191161e+01 1.3775207808228263e+01 2.5569797323347665e+01 0 1 -1
1515 2 9.1074323201533964e+00 1.7398398025809648e+01 3.1763549986582116e+00 0 0 0
1896 2 1.1512389824398056e+01 1.3313824327258207e+01 5.9056961536253647e+00 0 0 1
1546 1 1.3900493356031507e+01 1.4633625792534204e+01 2.6091030963572265e+01 0 1 0
984 2 1.8255980252702670e+01 8.9189880748074319e+00 1.2398028728727269e+01 0 1 -1
588 2 7.3840694011443695e+00 9.6396557592510490e+00 4.3111133771900141e+00 0 0 0
909 2 2.0608016384894668e+01 2.5695358025665740e+01 2.3282775941316750e+01 0 0 -1
2668 1 2.0345795361443965e+01 2.5700986842546058e+01 1.2932215208795245e+01 0 0 0
2354 2 2.1601052237865758e+01 2.5054942881719306e+01 2.0543959039455054e+01 0 0 0
2626 1 1.3967847978114007e+01 2.4519753341338244e+01 2.0910383616021949e+01 0 0 0
435 2 1.7535740504433129e+01 1.2373456039867312e+01 1.2130379780363731e+01 0 0 -1
1273 1 5.3199238417601062e+00 7.1343066170752429e+00 1.5772192737951656e+00 0 0 0
1132 1 9.7040922647676879e+00 6.3487239946264147e+00 7.7170174378439507e+00 0 1 0
1780 1 1.5105613194226230e+01 1.3495303270217516e+01 1.5368136802155268e+01 0 0 0
898 1 1.4616875465438049e+01 2.6245709845606644e+01 1.7570946486526008e+01 0 0 0
1514 2 9.3414662729788773e+00 1.7032561167324644e+01 4.6965623672741073e+00 0 0 0
416 2 1.1841030596957150e+01 1.7250847259093820e+01 2.0511137351397448e+01 0 0 0
352 1 9.2360388629428591e+00 9.8552518056151008e+00 9.4437163973522971e+00 0 0 0
961 1 2.4810074861476565e+01 2.9812537146849060e+01 2.3577304503088129e+01 0 0 -1
885 2 1.6374194219075612e+01 5.1952124254415875e+00 1.6674658346992125e+01 0 1 -1
489 2 1.7236593295126760e+01 2.5636187784140098e+01 2.7010000690095193e+01 0 0 -1
2316 2 1.8384698006713119e+01 2.3394539740252458e+01 8.6119151042875384e+00 0 0 1
975 2 1.4267858778227556e+01 2.8397233565471481e+01 9.7361531344151064e+00 0 0 0
818 2 2.1231401944715746e+01 3.2537385545946208e+01 1.9134991721158819e+01 0 0 -1
775 1 1.2506723908641280e+01 2.5390053664272148e+01 5.6504585602639548e+00 0 0 0
1603 1 1.6725361236257712e+01 1.8643348584238744e+01 2.3843012188247091e+01 0 0 0
1826 2 6.8910424337533556e+00 8.1839731836769172e+00 1.4308450967140029e+01 0 0 0
1605 2 1.6854118211964561e+01 1.8648904475990655e+01 2.4858362405396530e+01 0 0 0
2532 2 1.1963719636866822e+01 2.1926581682516129e+01 1.5837812379487733e+01 0 0 0
2623 1 1.1142217135705563e+01 1.3087131972236648e+01 2.5151006595854582e+01 0 0 0
100 1 6.0666212500283603e+00 9.1095090664566563e+00 8.9802238948699937e+00 0 0 0
1877 2 2.3183159618179005e+01 3.1102444187785864e+01 2.0669006308203876e+01 0 -1 0
2669 2 1.9644183677823282e+01 2.5059678533214722e+01 1.2827572893836150e+01 0 0 0
2323 1 8.3416096289775972e+00 2.0450904403889741e+01 2.0933711328164972e+00 0 1 1
348 2 7.4116618244652663e+00 1.5234676473603630e+01 1.0314396996891697e+01 0 0 0
1016 2 2.0197247342616489e+01 2.9430453965527729e+01 1.4461111190678034e+01 0 0 -1
2283 2 1.2761108125500401e+01 2.2121254096287299e+01 6.8720555497728411e+00 0 -1 0
995 2 4.6123681014057389e+00 9.2974808293820530e+00 1.8898660191230439e+00 0 1 0
97 1 1.0214437680078047e+01 3.1973471076844504e+00 5.3180392619332375e+00 0 0 0
2361 2 9.3641531204489361e+00 1.6512838091656601e+01 1.1490069942219630e+01 0 0 0
868 1 8.1006263621262491e+00 1.5115393639304553e+01 7.0845499260035982e+00 0 0 0
1513 1 9.3097630710913286e+00 1.6672403944600521e+01 3.7703424365201341e+00 0 0 0
1078 1 1.7853126447463094e+01 2.7686284045552835e+01 1.4637785322137526e+01 0 0 0
963 2 2.5462413746777074e+01 3.0425237728265621e+01 2.3953043926026524e+01 0 0 -1
1547 2 1.4823464490285325e+01 1.4845576303163465e+01 2.6364043391410522e+01 0 1 0
2353 1 2.0986229655144591e+01 2.4321901430583292e+01 2.0771443568869039e+01 0 0 0
917 2 2.4494482038674619e+00 5.0130250434365520e+00 8.6194182395726116e-01 0 1 0
417 2 1.3241976444621901e+01 1.7466100649310977e+01 1.9798723912613706e+01 0 0 0
985 1 1.5804020789123392e+01 1.3653183983449690e+01 1.7996595204373300e+01 0 0 0
1045 1 2.8650949798327520e+01 2.7056266548270997e+01 1.6809991258655902e+01 0 0 0
76 1 1.0902341477724818e+01 2.7069560744139729e+01 1.7597803535174512e+00 0 -1 0
298 1 9.7710962347345820e+00 1.7766103206728161e+01 6.1707352877895341e+00 0 0 0
1707 2 1.6823764220761802e+01 1.7006302332056464e+01 1.3694850852154326e+01 0 0 -1
71 2 9.8448703343141766e+00 1.7415927087830724e+01 9.4481528634088114e+00 0 0 0
612 2 8.1747805002764800e+00 4.9481010887130044e+00 1.3989378729611403e+01 0 1 0
324 2 9.2527168330883818e+00 2.0924038166236556e+01 8.0210613158328261e+00 0 0 0
1079 2 1.8791565512819147e+01 2.7527163605399579e+01 1.4566727677623680e+01 0 0 0
883 1 1.5885706465836467e+01 5.2822514395864069e+00 1.5792500015156717e+01 0 1 -1
2442 2 1.8795333863128835e+01 1.9589628667017092e+01 7.9542660191670551e+00 0 0 1
1915 1 1.6839070431002746e+01 2.5609030341971962e+01 1.6188872423411102e+01 0 0 0
2451 2 1.5137650539101489e+01 2.3932901161640352e+01 2.2300683483712245e+01 0 0 0
2315 2 1.8434486211753729e+01 2.1869687842586703e+01 8.1634500180063458e+00 0 0 1
1006 1 2.7135713668695910e+01 2.9514929103035943e+01 1.3762934183767063e+01 0 0 0
983 2 1.8607223496869398e+01 1.0397367681980178e+01 1.2390373664498139e+01 0 1 -1
923 2 1.8303249983721223e+01 2.1608680832138610e+01 1.1634604775093157e+01 0 0 0
2572 1 1.4680298695640953e+01 2.3460916510795457e+01 1.7049313159225989e+01 0 0 0
354 2 9.0670011007220808e+00 8.9955458266423722e+00 9.8530620819132739e+00 0 0 0
156 2 1.9398318803436787e+01 2.9326254485607301e+01 8.0948558544433666e+00 0 -1 0
1589 2 1.2265647272458256e+01 2.4225837588630604e+01 2.0705099163133456e+00 0 -1 1
1616 2 1.6086040280707543e+01 2.4950002914258977e+01 1.3590149118504860e+01 0 -1 0
1050 2 1.1677820466854655e+01 1.9037996011758697e+01 4.2681893763928711e+00 0 0 0
1081 1 2.1524305083578611e+01 1.4326275167613634e+01 2.1500999669322390e+01 0 0 -1
1594 1 1.9085401917150605e+01 1.9573840430137626e+01 1.4136746504987713e+01 0 0 0
2445 2 1.3626200636913525e+01 1.3347051448087424e+01 1.0742099402110505e+01 0 1 0
1588 1 1.1866101904033050e+01 2.3696427388547310e+01 2.8289537509742968e+00 0 -1 1
1150 1 1.6896882267746076e+01 1.7302477690208079e+01 1.8083832261798815e+01 0 0 0
1841 2 1.5986933157163200e+01 1.0344678881090857e+01 2.3431070560292035e+01 0 0 0
313 1 1.3315914539287890e+01 1.7760064808468847e+01 1.4016641785401655e+01 0 0 -1
1118 2 2.5525598806990054e+01 2.8005569446346879e+01 2.3204511417631341e+01 0 0 -1
1872 2 1.6252920351892264e+01 2.6551190380428707e+01 2.0327357690831896e+01 0 0 0
2613 2 1.9781308986109970e+01 2.4964584259973389e+01 9.2028646996341070e+00 0 0 1
1133 2 9.4491646297157246e+00 6.6230810934091338e+00 8.6289469373611514e+00 0 1 0
1762 1 1.2095716039894057e+01 1.2498428796210337e+01 1.3220608096726625e+01 0 0 0
2556 2 1.8225668493955610e+01 1.8076622320609903e+01 2.3294144338473934e+01 0 0 0
2548 1 2.1691456084848809e+01 1.0700980803030472e+01 2.6082926197958294e+01 0 1 0
1870 1 1.6215175542927739e+01 2.5826255736504098e+01 1.9745289267419025e+01 0 0 0
1662 2 7.4060937954352930e+00 1.4881655842354888e+01 5.5020333535004733e+00 0 -1 1
1879 1 9.3308516596627804e+00 1.0783009614939191e+01 2.1242504939548979e+01 0 0 0
1736 2 1.3518474370816209e+01 1.2947449252404759e+01 8.3208522614599918e+00 0 0 0
376 1 2.1962120231729713e+01 2.7517016740573332e+01 1.7147957155417529e+01 0 -1 0
1109 2 1.3678911441566807e+01 8.6459939031596083e+00 1.4816309667417881e+01 0 0 0
372 2 1.1482929171070095e+01 1.2129597463566011e+01 2.3734480952372756e+01 0 0 0
333 2 1.7044926754218697e+01 3.2463412478503265e+01 1.7666814039186360e+01 0 0 0
2555 2 1.8980948362862570e+01 1.6903895341889186e+01 2.4065558209744268e+01 0 0 0
374 2 6.9795695000129214e+00 7.6936503861256238e+00 4.3388729426973800e+00 0 0 0
1801 1 1.4282891414551164e+01 2.2272837383196432e+01 1.3706111490218236e+01 0 -1 0
442 1 8.2473064553960747e+00 8.6209652504287835e+00 1.2191108075019035e+00 0 0 0
2601 2 1.8005795255129719e+01 2.3074561299526469e+01 6.3721756191880985e+00 0 0 0
2600 2 1.8879831561772871e+01 2.3038934961307163e+01 5.1225926529480112e+00 0 0 0
188 2 1.4625596355977278e+01 2.2674361023996198e+01 8.3664244748737566e+00 0 0 0
2444 2 1.4284407346309365e+01 1.1934689265549423e+01 1.0348165253532475e+01 0 1 0
436 1 2.2477311391049831e+01 1.6530937103814374e+01 1.3147546017822213e+01 0 -1 0
2642 2 7.7694775861914742e+00 3.1373629133626681e+00 1.0962240577840129e+01 0 0 1
2307 2 1.0445727451055653e+01 6.3357130364341323e+00 3.0604558257421934e+00 0 0 0
1119 2 2.5094077651164696e+01 2.6555628972916296e+01 2.3660133623370051e+01 0 0 -1
1088 2 1.1511880758185498e+01 2.0912569426131441e+01 1.5460516988708535e+00 0 0 0
2528 2 1.6459348063044231e+01 2.9533618424635044e+01 2.4643708506716706e+01 0 0 -1
269 2 1.5012381156586724e+01 2.0896672431800706e+01 1.9370166178758158e+01 0 -1 -1
2306 2 1.0363548371666226e+01 6.4842219612367042e+00 1.5092484355309517e+00 0 0 0
198 2 1.9140685285548368e+01 2.7984145060410615e+01 1.0223773455949770e+01 0 -1 0
1089 2 1.0465341774379059e+01 2.1633821527239050e+01 5.6514916065745291e-01 0 0 0
2468 2 1.0346455359383899e+01 1.1793986787265748e+01 2.5934344473492601e+00 0 0 1
2570 2 2.1368016108539241e+01 2.5892527335376464e+01 6.3935307839755282e+00 0 0 0
776 2 1.2878322797623831e+01 2.5837279640513007e+01 4.8003086891920939e+00 0 0 0
830 2 1.3568700415780096e+01 2.7448374568528969e+01 1.2209194125152580e+01 0 0 0
1658 2 1.8163837984174645e+01 2.9663439714108392e+01 1.8042501657926518e+01 0 -1 0
105 2 6.6547126121501101e+00 1.1978295183103398e+01 9.7999079367274522e+00 0 0 0
2604 2 1.7094106619522204e+01 1.5844523243478971e+01 2.2038038572312878e+01 0 1 0
2397 2 5.1100546370187239e+00 3.0262954098086228e+00 1.1064300614404081e+01 0 1 0
1134 2 1.0637288389234406e+01 6.5280360072830126e+00 7.6823847553259492e+00 0 1 0
2644 1 1.4711429551989117e+01 7.4587809208849132e+00 1.9276218945339160e+01 0 0 0
3026 2 2.7322684765752694e+01 3.1242495703600490e+01 1.8307669182447111e+01 0 0 0
332 2 7.0279581902969479e+00 4.8036796580862982e+00 1.6119068107296229e+01 0 1 0
1735 1 1.3949879952419154e+01 1.3307477136783874e+01 7.5475242727102430e+00 0 0 0
2646 2 1.4766632298309521e+01 8.3534075818402886e+00 1.8798676999433930e+01 0 0 0
2413 1 1.1241181215653000e+01 1.8723270294999850e+01 1.2566709286859103e+01 0 0 1
895 1 1.8939028705716247e+01 2.8880204024349485e+01 2.3478210894261327e+01 0 0 -1
2603 2 1.7829737079864572e+01 1.7139350950595091e+01 2.1190995331467391e+01 0 1 0
2554 1 1.9088738249485875e+01 1.7500387482357354e+01 2.3296198488072612e+01 0 0 0
2629 1 9.0307103902281778e+00 7.3034597530600935e+00 1.0165710261287181e+01 0 0 0
2305 1 1.0107262719674100e+01 6.9591523322185340e+00 2.3798678150083887e+00 0 0 0
443 2 8.7455708235781699e+00 7.8468286388851602e+00 1.6087287784850197e+00 0 0 0
829 1 1.4114603892258948e+01 2.8217699854900030e+01 1.2478877137777230e+01 0 0 0
2375 2 4.1963849118492149e+00 3.1912336509959820e+00 7.3976647323146656e+00 0 1 1
994 1 4.7423628670270057e+00 1.0156668237653566e+01 2.2673851575626371e+00 0 1 0
2641 1 8.0752410457264681e+00 3.6581750928759171e+00 1.0161196736656716e+01 0 0 1
897 2 1.8198523485792158e+01 2.8313242970512370e+01 2.3168719833485540e+01 0 0 -1
318 2 2.1130694154953993e+01 2.6520037216005669e+01 2.6291820553511357e+01 0 -1 -1
725 2 5.5236613117261335e+00 2.1746716483881707e+00 3.8387999337320098e+00 0 0 1
2456 2 1.4192156222990059e+01 1.7763996945837953e+01 8.4736568650519306e-01 0 0 1
1672 1 1.8267094744445522e+01 2.7976866788758464e+01 8.5917893226266902e+00 0 -1 0
1617 2 1.6371997965187610e+01 2.4549468184387969e+01 1.5076687220470864e+01 0 -1 0
1117 1 2.5844733800780684e+01 2.7108262439081038e+01 2.3302099553300941e+01 0 0 -1
1737 2 1.3286190312347028e+01 1.3049925740244952e+01 6.8104866383257372e+00 0 0 0
1909 1 1.3447324625345036e+01 1.1377142904255873e+01 1.6335149537926704e+01 0 0 0
1682 2 6.3030949963258909e+00 6.1998853318206661e+00 7.2919434686898503e+00 0 0 0
368 2 1.4962387942409045e+01 1.0752181333971564e+01 1.2278014287055743e+01 0 0 -1
197 2 1.9699776252919428e+01 2.7297198131486525e+01 1.1551778198527048e+01 0 -1 0
759 2 2.2009385601804258e+01 2.7556211503395030e+01 5.4400595065891375e+00 0 -1 0
2576 2 1.6416868740170909e+01 2.9169494206385782e+01 1.0460769005219850e+01 0 0 0
444 2 8.7562917340212856e+00 8.7979103546242836e+00 3.7273318127647320e-01 0 0 0
2513 2 1.8502748699205032e+01 2.4465748713784684e+01 1.8622448272117293e+01 0 0 0
554 2 2.6311266109536156e+01 1.7802146859936933e+01 2.0270693998107021e+01 0 0 -1
1681 1 5.8307226565496775e+00 6.7814912643209624e+00 7.8651024716371154e+00 0 0 0
2467 1 1.0919970017521063e+01 1.1488724950817341e+01 1.8226105933765298e+00 0 0 1
1596 2 1.8148714062333994e+01 1.9463930634821555e+01 1.3913163318004299e+01 0 0 0
1621 1 1.1237386380589435e+01 1.0905846239588726e+01 1.9260704680294889e+01 0 0 -1
1622 2 1.1998250964163354e+01 1.1539749199012416e+01 1.9420476985411245e+01 0 0 -1
1151 2 1.7739543115657270e+01 1.7342205871179537e+01 1.8669573524044832e+01 0 0 0
1691 2 2.2971086966140994e+01 2.8631201844226311e+01 2.5878360216930535e+01 0 -1 0
316 1 2.1912042786249824e+01 2.5984752644186223e+01 2.6528987656216490e+01 0 -1 -1
2612 2 1.8275643152829051e+01 2.5142711476700683e+01 9.2172516919467693e+00 0 0 1
2491 1 1.0041657855889749e+01 1.9781542085336412e+01 4.2064431607302915e+00 0 0 1
2052 2 1.6344043019581314e+01 6.6919734632351684e+00 7.7098373060865955e+00 0 0 1
1110 2 1.2619870027695008e+01 9.2259469852120528e+00 1.3805453072749744e+01 0 0 0
1876 1 2.3064783035965561e+01 3.0441732570729144e+01 2.1376074414357117e+01 0 -1 0
2563 1 1.9757592294416007e+01 1.9317614101475499e+01 2.6771779404070056e+01 0 1 -1
2630 2 8.1473701675779484e+00 6.8872479871936410e+00 1.0081999509032176e+01 0 0 0
216 2 1.8191304458619243e+01 2.3566701092874027e+01 1.3261950581838652e+01 0 0 0
819 2 1.9669829448876918e+01 3.2592994171159944e+01 1.8624287262703131e+01 0 0 -1
373 1 6.5825286465538859e+00 6.8906073942968522e+00 3.8567551473386104e+00 0 0 0
1049 2 1.3168954560786293e+01 1.8866793827586974e+01 4.7684671916415455e+00 0 0 0
2512 1 1.8655038622792208e+01 2.5380602110374664e+01 1.8183800197737771e+01 0 0 0
214 1 1.8557827018390896e+01 2.3690492456548920e+01 1.2328275222962324e+01 0 0 0
1900 1 2.1939680374417716e+01 3.4075772140068501e+01 2.6304081594797310e+01 0 -1 0
375 2 7.1173980594158017e+00 6.1024785940230455e+00 3.8888928879419096e+00 0 0 0
1668 2 6.4508853688233785e+00 1.2219522053537782e+01 1.6972086963400590e-01 0 0 1
2439 2 8.9443444882552505e+00 1.2263206139689826e+01 4.7337857822481126e+00 0 1 0
189 2 1.6182555124257668e+01 2.2626295119628061e+01 8.7904775136373736e+00 0 0 0
844 1 1.4682218595325608e+01 1.7168251619364668e+01 2.2529544932746884e+01 0 0 -1
187 1 1.5253960549173282e+01 2.2477797164879817e+01 9.1409305744744884e+00 0 0 0
1611 2 7.2553844415882001e+00 1.5664698300335665e+01 2.8847618142248805e+00 0 -1 0
314 2 1.3568110378087757e+01 1.8200415850388911e+01 1.4847057643434868e+01 0 0 -1
2602 1 1.7417972793886200e+01 1.6249975250413300e+01 2.1168023762475748e+01 0 1 0
1029 2 2.6498870955985900e+01 1.7027238314946995e+01 2.2912808003211882e+01 0 1 -1
1560 2 1.3840052291521957e+01 2.4184450138902541e+01 9.4260233423140671e-01 0 0 1
827 2 1.3408245638153780e+01 2.4794248575128677e+01 1.2037960249765170e+01 0 0 0
271 1 1.1285625517463002e+01 1.4352320655466723e+01 2.1995802767481521e+01 0 0 0
2469 2 1.1135661479130018e+01 1.0560982036823347e+01 2.0322025144515399e+00 0 0 1
1657 1 1.8029773584957773e+01 2.9589911552537632e+01 1.8985613337946475e+01 0 -1 0
385 1 1.9517626054982593e+01 1.6275775944528327e+01 2.5897639744235853e+01 0 0 -1
154 1 1.9971404778037847e+01 3.0098329720526014e+01 8.0210028798678632e+00 0 -1 0
29 2 1.8903396575395430e+01 2.1359868680560137e+01 1.4762206981091934e+01 0 0 0
1152 2 1.7078755015070293e+01 1.6582061023852354e+01 1.7464707609257701e+01 0 0 0
625 1 1.5742311813802580e+01 6.0285285986428665e+00 3.0101071721460784e+00 0 0 0
1878 2 2.2693253632781193e+01 3.0962237190066574e+01 2.2113977121228686e+01 0 -1 0
2437 1 8.9220790101678364e+00 1.2245675168317852e+01 3.7107002177652664e+00 0 1 0
1615 1 1.6048692984747639e+01 2.4196569112557295e+01 1.4205704165947083e+01 0 -1 0
920 2 2.2280938482878348e+01 2.0877884857486727e+01 2.1596215702891513e+01 0 0 -1
284 2 1.6421114517736985e+01 5.7109437387780089e+00 2.0982380798590366e+01 0 1 -1
871 1 1.2981095227092144e+01 1.4868315087465012e+01 1.8383010470020089e+01 0 0 0
820 1 9.3807064916881089e+00 1.7996405454661417e+01 1.5333020399438460e+00 0 0 0
2670 2 2.1206874618879187e+01 2.5297828752208765e+01 1.2672976233608447e+01 0 0 0
117 2 2.2908309369458603e+01 1.8446785971037272e+01 2.6383013245462749e+01 0 0 -1
2433 2 1.6414430865407468e+01 2.9134208864238218e+01 1.9277091690891663e+01 0 0 0
2492 2 9.8671100160830836e+00 2.0707664228974178e+01 4.3643142462791173e+00 0 0 1
1085 2 1.7368798392389088e+01 1.8726673825298619e+01 5.3480898664728755e+00 0 0 0
848 2 1.5101445543717983e+01 2.0061416260682101e+01 1.0679420402059860e+01 0 0 -1
273 2 1.0984790292976657e+01 1.4587185034394871e+01 2.1111429755290899e+01 0 0 0
1084 1 1.7662144076490414e+01 1.7837134644503053e+01 5.6222561875440569e+00 0 0 0
1910 2 1.3173822114550214e+01 1.0956102513535907e+01 1.5516662949322860e+01 0 0 0
1087 1 1.0695361452456408e+01 2.1496604217131523e+01 1.5227714077790175e+00 0 0 0
360 2 1.8603125978690088e+01 2.4691617657023897e+01 2.3654435167622765e+01 0 0 0
196 1 1.9269548450770280e+01 2.8087890740967513e+01 1.1205009088980034e+01 0 -1 0
777 2 1.1564894536835311e+01 2.5577095102015047e+01 5.6400599389684247e+00 0 0 0
308 2 2.5087797602115906e+01 3.2721234416238929e+01 2.2556019407439777e+01 0 0 -1
309 2 2.5920743599035681e+01 3.1761329735987182e+01 2.1569984508686215e+01 0 0 -1
3003 2 8.5431591852321809e+00 5.2853352925814630e+00 7.0011396729978612e+00 0 1 0
1809 2 1.9797427313491148e+01 1.5573926468997985e+01 1.1806335023041724e+01 0 0 0
880 1 1.5691286980514754e+01 2.0664385726473498e+01 2.2476577883116242e+01 0 0 0
315 2 1.2514450713921624e+01 1.8218563326491559e+01 1.3674933478306389e+01 0 0 -1
283 1 1.6856257987118717e+01 6.2788318500760916e+00 2.0326253431572969e+01 0 1 -1
386 2 1.9373696843905059e+01 1.5340524759276168e+01 2.5532038174736567e+01 0 0 -1
1712 2 9.5953101558176179e+00 1.5583939119183201e+01 1.3525211342289786e+01 0 0 0
726 2 5.0257203710774503e+00 3.5373741929209368e+00 4.1938480546951551e+00 0 0 1
1545 2 8.7012070043601497e+00 1.0177220321508763e+01 1.4868536348519966e+01 0 0 0