LAMMPS data file via write_data, version 15 Apr 2020, timestep = 500000

3072 atoms
2 atom types

1.8313469883154987e-01 2.9957059301164620e+01 xlo xhi
1.8008802836448545e-01 2.8160377971629501e+01 ylo yhi
2.0023641266923420e-01 2.7211208587328720e+01 zlo zhi
1.0131671111033461e+01 1.0214644265215307e+01 7.0729045210723909e+00 xy xz yz

Masses

1 16
2 2

Atoms # atomic

1 1 7.7393160125026554e+00 5.3272062490436447e+00 4.3696076332854163e+00 0 0 0
2 2 6.8276041592621501e+00 4.9956174647570570e+00 4.1586242771767328e+00 0 0 0
3 2 7.4745251293350270e+00 6.2920018390402257e+00 4.4278344422088107e+00 0 0 0
4 1 9.9523413776718126e+00 7.2606857113119441e+00 1.0754850581798417e+01 0 0 0
5 2 1.0454690542055664e+01 6.8606507361465940e+00 1.1523727672811097e+01 0 0 0
6 2 9.7523546037417379e+00 8.0435621616112201e+00 1.1318419481183776e+01 0 0 0
7 1 9.9273299252683724e+00 1.2237002525861749e+01 3.8572724836292287e+00 0 0 0
8 2 1.0396770921733378e+01 1.1914338351506398e+01 4.6561080206574470e+00 0 0 0
9 2 9.6943284078738063e+00 1.3193358531491961e+01 3.9929031540253694e+00 0 0 0
10 1 1.2667512306735516e+01 1.3687081216775379e+01 1.0998722457049782e+01 0 0 0
11 2 1.3350257769001969e+01 1.3874121439586199e+01 1.0363216679810753e+01 0 0 0
12 2 1.1911102060665224e+01 1.3334970849439193e+01 1.0451135311475465e+01 0 0 0
13 1 1.5158299627293404e+01 5.3595761766562449e+00 3.8975444815744282e+00 0 0 0
14 2 1.5485153591746469e+01 4.7741982490433488e+00 4.6323903529182422e+00 0 0 0
15 2 1.4940069788623955e+01 6.2097358641819174e+00 4.4079285188673163e+00 0 0 0
16 1 1.7467026087412286e+01 7.0815276324035636e+00 1.0696928165202001e+01 0 0 0
17 2 1.7867934377076168e+01 6.6611049858693931e+00 1.1528340314645650e+01 0 0 0
18 2 1.8262264330874849e+01 7.2326690769886879e+00 1.0201838270329317e+01 0 0 0
19 1 1.7438064093514562e+01 1.2186962384187638e+01 4.0850635431178608e+00 0 0 0
20 2 1.8182183375526911e+01 1.2597891880435508e+01 3.5634506763655835e+00 0 0 0
21 2 1.7831106732826200e+01 1.1909054582098253e+01 4.9000573038186159e+00 0 0 0
22 1 2.0106589562549793e+01 1.3872846730714171e+01 1.0879800433038385e+01 0 0 0
23 2 2.0770614976191474e+01 1.4066625224940296e+01 1.0221260691221667e+01 0 0 0
24 2 1.9893525446825301e+01 1.4799178156352392e+01 1.1224100598512159e+01 0 0 0
25 1 1.1872189343591229e+01 8.2772758000320401e+00 6.4931800298419660e+00 0 0 0
26 2 1.1023962498825096e+01 8.5703922747144823e+00 6.0541037114511225e+00 0 0 0
27 2 1.1517916882704219e+01 7.6964481299603422e+00 7.1531674961081517e+00 0 0 0
28 1 1.4242362359178323e+01 9.8632319886671809e+00 1.3273627237847492e+01 0 0 0
29 2 1.4480554036779585e+01 9.2966833373431612e+00 1.2499325090538346e+01 0 0 0
30 2 1.3427722666882714e+01 1.0342169956728279e+01 1.3004117119600751e+01 0 0 0
31 1 1.4021134918832910e+01 1.4962864453238232e+01 6.4857824706280391e+00 0 0 0
32 2 1.4328938251772026e+01 1.4466280634149800e+01 5.7196923006838540e+00 0 0 0
33 2 1.3322332730002579e+01 1.5573796182429588e+01 6.1740124002135737e+00 0 0 0
34 1 1.6876085026356158e+01 1.6947639714909421e+01 1.3208369115596151e+01 0 0 0
35 2 1.6218139112499586e+01 1.7554165152091997e+01 1.2796446448702827e+01 0 0 0
1023 2 2.0481885450107811e+01 1.9189969062926750e+01 7.6882256251397663e-01 0 0 0
37 1 1.9100207167468461e+01 8.2481253891468338e+00 6.5322580083980615e+00 0 0 0
38 2 1.8276624745973500e+01 8.5170743191868166e+00 6.1573796113306294e+00 0 0 0
119 2 1.7139956297128613e+01 1.2850359964999845e+01 1.3386894646206422e+01 0 0 0
40 1 2.1916640718812957e+01 9.9578998691637945e+00 1.3291772328243221e+01 0 0 0
1028 2 2.1943947882554333e+01 2.5187387042188881e+01 3.4304091496794531e-01 0 0 0
42 2 2.1104193684906448e+01 1.0342564407015368e+01 1.2900019240032581e+01 0 0 0
1566 2 8.7484855499409697e+00 5.8014527459087466e+00 3.6536678033552306e-01 0 0 1
44 2 2.0799536155661521e+01 1.5454964033100955e+01 6.1252088550127697e+00 0 0 0
92 2 1.0601120853605522e+01 7.6850708298940447e+00 2.3094358769928794e-01 0 0 0
516 2 2.2706613907976319e+01 1.2353425087605151e+01 1.1943581730215376e+01 0 0 0
47 2 2.3441907886466630e+01 1.7443527947195271e+01 1.3100011113662038e+01 0 0 0
320 2 5.9646504650680710e+00 1.1105507484614206e+01 8.6751933929973168e-01 0 0 0
49 1 5.5454455523534882e+00 4.0439156136561776e+00 3.3920473048208186e+00 0 0 0
50 2 5.6656065403105504e+00 3.1627167598559831e+00 3.0134222242484436e+00 0 0 0
51 2 4.8806051864663225e+00 3.8667668818445371e+00 4.1028597393482853e+00 0 0 0
52 1 7.9999870061541767e+00 5.5838879220353785e+00 9.8900536353104496e+00 0 0 0
53 2 7.4786809279240529e+00 6.0093118623574364e+00 9.1389338746764128e+00 0 0 0
54 2 8.7852666338028662e+00 6.1234070710394821e+00 1.0139176594884953e+01 0 0 0
55 1 7.8513192137099823e+00 1.0774461896614470e+01 2.9361215457865564e+00 0 0 0
56 2 8.0751145619686131e+00 9.8494321362235926e+00 2.6622744615747171e+00 0 0 0
57 2 8.6207056761729159e+00 1.1263163868871116e+01 3.2144394416765851e+00 0 0 0
58 1 1.0385027064477942e+01 1.2512841426511516e+01 9.7060056978785312e+00 0 0 0
59 2 1.0041678042181561e+01 1.3135318200518876e+01 9.0054441066168955e+00 0 0 0
60 2 1.0459306725412956e+01 1.1662157404090344e+01 9.2882917642444696e+00 0 0 0
61 1 1.2885880587393583e+01 3.7248754945400315e+00 2.9143722067436770e+00 0 0 0
62 2 1.3633626867317213e+01 4.1756236497121826e+00 3.2823821817447847e+00 0 0 0
63 2 1.2379230463948517e+01 4.3455704324919893e+00 2.3973888013670113e+00 0 0 0
64 1 1.5282866829331459e+01 5.6477983960305060e+00 9.7442482448626926e+00 0 0 0
65 2 1.6042716823762760e+01 6.0042034288244928e+00 1.0156956062936874e+01 0 0 0
66 2 1.5517972434677507e+01 4.7287345104462268e+00 9.5064008769798658e+00 0 0 0
67 1 1.5535374500020025e+01 1.0695214287157492e+01 2.7265057164369235e+00 0 0 0
68 2 1.6308903965348328e+01 1.1191673860519272e+01 3.1047563504714737e+00 0 0 0
69 2 1.5852740628592827e+01 9.7440526676219026e+00 2.5087301363121175e+00 0 0 0
70 1 1.8122952878661998e+01 1.2419487231928342e+01 9.8914988636124335e+00 0 0 0
71 2 1.7643714014693344e+01 1.2951712992167574e+01 9.2823951838069156e+00 0 0 0
72 2 1.8878480419020676e+01 1.2950423904918418e+01 1.0281576925497433e+01 0 0 0
73 1 1.3370517625295228e+00 8.1415248064174950e-01 9.1043617427339640e-01 0 0 0
432 2 9.6047827022684853e+00 1.6510459851642871e+01 1.2353512536317842e+01 1 0 0
1011 2 1.3343564272629754e+01 1.9262465134830357e+01 8.0973373652564096e-01 0 0 0
76 1 3.5988498904072985e+00 2.6622340462791576e+00 7.7233516815385137e+00 0 0 0
77 2 1.4419549405837744e+01 3.0003981617894091e+01 8.1162721718499551e+00 0 -1 0
1152 2 2.3900128349451656e+01 3.0760042691371758e+01 1.1655459517854057e+01 0 0 0
79 1 3.9299674387544519e+00 7.7972272154235442e+00 8.4730673693629421e-01 0 0 0
327 2 1.0879924065520900e+01 4.0742472316276785e+00 2.6955723940700438e-01 0 0 0
81 2 4.7257105671588731e+00 7.3362817755907406e+00 1.1930900247550014e+00 0 0 0
82 1 6.3287652120156217e+00 9.6881548917310969e+00 7.5357843044884039e+00 0 0 0
851 2 1.1644133391301695e+01 2.4258090289568941e+01 6.9940720977859252e+00 0 0 0
84 2 7.1080737277173913e+00 9.1237650504103129e+00 7.8196477281325452e+00 0 0 0
85 1 8.4969120914715575e+00 9.6696269532658519e-01 7.3782366707734270e-01 0 0 0
1147 1 2.2161899997747803e+01 2.8767921309260473e+01 5.4198307822104113e+00 0 0 0
87 2 8.1995602597833983e+00 1.3505541658905962e+00 1.5803030134876330e+00 0 0 0
88 1 1.1281020070202084e+01 2.6739306537978784e+00 7.4717751908489252e+00 0 0 0
89 2 1.2085638023603618e+01 2.3770088398065679e+00 7.9628349777320633e+00 0 0 0
90 2 1.1698978282127770e+01 3.4178515519967405e+00 6.8972400917772072e+00 0 0 0
91 1 1.1215496361133974e+01 8.1895465980129245e+00 8.1782630491366037e-01 0 0 0
282 2 2.0419794574318509e+01 7.7501819763763891e+00 1.0236950862399338e+01 0 0 0
93 2 1.1974046662146375e+01 7.6168260224025701e+00 1.1245681404746350e+00 0 0 0
94 1 1.4042562174495030e+01 9.6000873356183707e+00 7.4344225145326979e+00 0 0 0
95 2 1.4828076970130644e+01 8.9760698485373958e+00 7.7648318819907383e+00 0 0 0
96 2 1.3206939791663681e+01 9.0778039976032368e+00 7.3554271176317014e+00 0 0 0
97 1 5.0196409118757632e+00 4.3610065426286937e+00 6.1912603460646345e+00 0 0 0
98 2 5.4642676096902623e+00 4.8342146671531436e+00 6.8657306785733265e+00 0 0 0
99 2 4.3828108253252527e+00 3.7512802994740868e+00 6.6361256536362419e+00 0 0 0
100 1 7.9352546157313393e+00 6.2464064742633649e+00 1.3075344355414966e+01 0 0 0
101 2 7.5545516152754306e+00 6.6636173097490587e+00 1.2252362441480313e+01 0 0 0
102 2 8.6379642273922475e+00 5.7049975188461701e+00 1.2702505262758862e+01 0 0 0
103 1 8.3102877675760940e+00 1.1220102193820136e+01 6.2498658223858943e+00 0 0 0
104 2 7.9668272385910424e+00 1.1639932242034593e+01 5.4203879842876654e+00 0 0 0
105 2 7.5272833116129085e+00 1.0722237766742859e+01 6.6938614587065652e+00 0 0 0
106 1 1.0317175751142502e+01 1.3150168525891988e+01 1.2812647305268696e+01 0 0 0
1146 2 2.2223241451595413e+01 2.2831336242139479e+01 1.1629201219856760e+01 0 0 0
108 2 1.0896329451594047e+01 1.2444854151404616e+01 1.2509102442144147e+01 0 0 0
109 1 1.2631388665029560e+01 4.3719471517680590e+00 6.1656074988109841e+00 0 0 0
110 2 1.3344223438823235e+01 3.7919181062015284e+00 5.9417639409836198e+00 0 0 0
111 2 1.2441266729411003e+01 4.9047120510793283e+00 5.4113710927451049e+00 0 0 0
112 1 1.5713032477366960e+01 6.1894245645329296e+00 1.2801995532451317e+01 0 0 0
1136 2 1.4338763285190163e+01 2.8400388447975246e+01 6.3735595039262307e+00 0 0 0
80 2 3.1869638025503413e+00 7.1831747911967234e+00 8.0562434586660403e-01 0 0 0
115 1 1.5658241273385686e+01 1.1315401007300698e+01 6.3160771439558534e+00 0 0 0
116 2 1.4920585048989846e+01 1.0657376904347284e+01 6.4920774497430891e+00 0 0 0
117 2 1.5609901587599643e+01 1.1932408067730842e+01 7.0705516367802996e+00 0 0 0
118 1 1.7871149564983341e+01 1.3259797007541890e+01 1.2852573082028144e+01 0 0 0
1050 2 2.5296571301611813e+01 2.1725788259877142e+01 8.8698249365804394e+00 0 0 0
120 2 1.7540424074911307e+01 1.3767056699701026e+01 1.2135925669200674e+01 0 0 0
121 1 3.0105824724639270e+00 3.0938660966358880e+00 4.4089694844968470e+00 0 0 0
339 2 3.6307062454145287e+00 6.4228567010114714e+00 3.8718390493248913e+00 0 0 0
123 2 3.4604505807688613e+00 2.2273678473389804e+00 4.6400374045331150e+00 0 0 0
124 1 5.5990415729796261e+00 4.8462139561386612e+00 1.1330065072119867e+01 0 0 0
125 2 6.3146378922707447e+00 5.3617812500448281e+00 1.0948352588009707e+01 0 0 0
126 2 5.9952191957164320e+00 4.0332121415050786e+00 1.1763213070673771e+01 0 0 0
127 1 5.8014752366925872e+00 9.8975240476824577e+00 4.4098351572205772e+00 0 0 0
1109 2 1.2150777871324008e+01 2.3065635416706101e+01 1.1567596010534409e+01 0 0 0
129 2 6.5010959086403961e+00 1.0504472132989614e+01 4.1296487386300882e+00 0 0 0
130 1 8.1325351183894021e+00 1.1905853401313564e+01 1.1122212403715940e+01 0 0 0
75 2 1.0612237640675906e+00 1.5969018849664134e+00 1.4813418606186290e+00 0 0 0
132 2 9.0160439823682186e+00 1.2148237733419323e+01 1.0758775992494567e+01 0 0 0
133 1 1.0485269411479766e+01 2.7820416171892957e+00 4.4430174762083467e+00 0 0 0
134 2 1.1122756245812432e+01 2.1757202685213284e+00 4.8092749189948290e+00 0 0 0
135 2 1.1035080781378165e+01 3.3270536765678043e+00 3.8362461814258664e+00 0 0 0
136 1 1.3104872443487015e+01 4.6740292724376076e+00 1.0989871811215323e+01 0 0 0
137 2 1.4029468384919371e+01 4.9467070780996005e+00 1.0871412133663988e+01 0 0 0
138 2 1.2714346008971225e+01 5.3649435104039975e+00 1.1626859768716610e+01 0 0 0
139 1 1.3190706937595268e+01 9.9709591987519488e+00 4.3336174024192822e+00 0 0 0
140 2 1.3952369334537185e+01 1.0187233680761118e+01 3.7486578322933575e+00 0 0 0
141 2 1.3462414217393304e+01 9.1567038075185003e+00 4.7846080544709988e+00 0 0 0
142 1 1.5865637610229085e+01 1.1315747987640400e+01 1.1043901629173646e+01 0 0 0
143 2 1.6623973529054801e+01 1.1883794219905859e+01 1.0736291465736581e+01 0 0 0
144 2 1.6287297401572104e+01 1.0618973456459978e+01 1.1447037072953767e+01 0 0 0
145 1 6.5538421400920672e+00 2.1284258355909653e+00 5.4004842596320835e+00 0 0 0
146 2 7.3987962472033573e+00 1.8960802823392680e+00 5.8104322483386888e+00 0 0 0
147 2 6.4754360610373487e+00 3.0704407540551122e+00 5.5781557416132008e+00 0 0 0
148 1 9.5446344737387268e+00 4.2876717188229083e+00 1.2058433335823631e+01 0 0 0
149 2 9.9254470247298858e+00 4.4241823555217952e+00 1.1211410055343064e+01 0 0 0
150 2 1.0304592903851260e+01 3.9041519761008336e+00 1.2565197282964041e+01 0 0 0
151 1 9.4575287769295961e+00 8.7911198821832013e+00 5.2187551045461520e+00 0 0 0
152 2 9.1920768163832562e+00 9.7134494269852105e+00 5.5023799373413373e+00 0 0 0
153 2 9.8571414597448541e+00 8.7351914750221464e+00 4.3476961538872354e+00 0 0 0
154 1 1.1932958284536646e+01 1.0739828687125847e+01 1.2009029362155820e+01 0 0 0
155 2 1.1048825897475259e+01 1.0341719471601424e+01 1.1840589747934287e+01 0 0 0
156 2 1.2431947417007327e+01 1.0791234936807559e+01 1.1103996722382226e+01 0 0 0
157 1 1.4270961838450537e+01 2.1757665442868070e+00 4.9472970867801438e+00 0 0 0
158 2 1.4945632421800232e+01 1.7542470794328238e+00 5.4712587946805256e+00 0 0 0
159 2 1.4750622420185758e+01 2.2551882349507943e+00 4.0879521652726307e+00 0 0 0
160 1 1.6863321741443755e+01 3.8750662661133366e+00 1.1956376161342984e+01 0 0 0
161 2 1.6647567350842117e+01 4.7008828680748600e+00 1.2355285487051441e+01 0 0 0
162 2 1.5986685074172787e+01 3.3252838952974293e+00 1.1975879333389438e+01 0 0 0
163 1 1.6773828337062376e+01 9.0799508172044892e+00 5.4126172194228008e+00 0 0 0
164 2 1.6574962608844388e+01 1.0020492076037543e+01 5.7261942103770442e+00 0 0 0
165 2 1.7112915824526333e+01 9.1418904365753608e+00 4.4928358114038298e+00 0 0 0
166 1 1.9701274222538153e+01 1.1033100974184503e+01 1.1982616115991432e+01 0 0 0
167 2 1.9257381789482572e+01 1.1872325550981971e+01 1.2177696371386565e+01 0 0 0
168 2 2.0145632285395941e+01 1.1176357506874906e+01 1.1098513787732353e+01 0 0 0
169 1 9.1065032880689554e+00 4.2911879861247719e+00 6.3137321172285636e+00 0 0 0
170 2 9.7139664154715337e+00 3.7459027465218986e+00 5.7502362899823822e+00 0 0 0
171 2 8.5792335004624825e+00 4.8036845728473985e+00 5.6385860010447235e+00 0 0 0
172 1 1.1575290645193602e+01 6.3783039203497758e+00 1.2841457838810017e+01 0 0 0
953 2 2.4513429196245518e+01 2.0934810553434836e+01 1.3582816198734116e+01 0 0 0
1490 2 2.4095905347924209e+01 2.1146160888459775e+01 5.2720442731354122e+00 0 0 0
175 1 1.1584724934875666e+01 1.1391497750036383e+01 5.9981311753421798e+00 0 0 0
176 2 1.2256059906811350e+01 1.0930332777577927e+01 5.4677439332457114e+00 0 0 0
177 2 1.2084467197853744e+01 1.2034396069289164e+01 6.5860499889803839e+00 0 0 0
178 1 1.4360552962304377e+01 1.3006597795552475e+01 1.2985550102910279e+01 0 0 0
179 2 1.3614750534613760e+01 1.3345313277912309e+01 1.2484293849047340e+01 0 0 0
180 2 1.4867358471955791e+01 1.2426960740096582e+01 1.2344601363214647e+01 0 0 0
181 1 1.6407294191034445e+01 4.2060952775000162e+00 6.3676743499128756e+00 0 0 0
182 2 1.7100943037466870e+01 3.7202244371217117e+00 5.8295172480785009e+00 0 0 0
183 2 1.6901806898640984e+01 4.8812461649790357e+00 6.8782100703535418e+00 0 0 0
184 1 1.9014286602108847e+01 6.1219258189164290e+00 1.2854911797949326e+01 0 0 0
798 2 1.8949645644032088e+01 2.3425826464012772e+01 1.3620162023004037e+01 0 0 0
1149 2 2.2201264467549798e+01 2.7878507610560341e+01 4.8894778506819838e+00 0 0 0
187 1 1.8988963474227845e+01 1.1419879505135548e+01 6.2342728975378456e+00 0 0 0
188 2 1.8868578340267078e+01 1.0815374131406440e+01 7.0201202354606211e+00 0 0 0
189 2 1.9177623992860582e+01 1.2257385439759080e+01 6.6585508692340873e+00 0 0 0
190 1 2.1599427295604272e+01 1.3127975450904414e+01 1.3002086029139413e+01 0 0 0
36 2 1.6243077694294094e+01 1.6247355540051842e+01 1.3527799579366222e+01 0 0 0
192 2 2.0959187760031696e+01 1.3389089670952533e+01 1.2285084204445536e+01 0 0 0
193 1 8.1236837812196292e+00 2.3747425187270466e+00 2.9171997751140202e+00 0 0 0
194 2 7.3989517790875201e+00 2.2287046685248084e+00 3.5765819403354744e+00 0 0 0
195 2 9.0116114239677323e+00 2.4586785192510612e+00 3.3568890877217390e+00 0 0 0
196 1 1.0930851263914041e+01 4.4692640106786898e+00 9.6064326649156087e+00 0 0 0
197 2 1.1026291470942423e+01 3.7807588141647139e+00 8.8773327734619656e+00 0 0 0
198 2 1.1828453606372678e+01 4.5013350413942739e+00 1.0010830152117338e+01 0 0 0
199 1 1.0722495968250257e+01 9.7861551957719701e+00 2.9350260410093894e+00 0 0 0
200 2 1.0875247590909677e+01 9.2068112711546100e+00 2.1627448041263051e+00 0 0 0
201 2 1.1572111401520575e+01 9.7829913978200889e+00 3.4300488640808529e+00 0 0 0
202 1 1.3543456400987138e+01 1.0907020912431266e+01 9.7382438614946576e+00 0 0 0
203 2 1.4411231771293268e+01 1.1067647407450471e+01 1.0194336154354882e+01 0 0 0
204 2 1.3744203144519570e+01 1.0278726954695609e+01 8.9316125788273890e+00 0 0 0
205 1 1.5759286728244023e+01 2.4173886973181200e+00 2.7430388021599406e+00 0 0 0
846 2 8.8472746047774820e+00 1.6932913265062020e+01 8.0967007072453399e+00 0 0 0
978 2 2.3764267272829450e+01 1.7723155958508144e+01 9.0801414816056383e+00 0 0 0
208 1 1.8494161199472792e+01 4.3975811655876171e+00 9.6350610822040803e+00 0 0 0
209 2 1.8051497989483146e+01 4.2529076829486137e+00 1.0567767717200303e+01 0 0 0
1016 2 1.5568874447192698e+01 2.5980855158295405e+01 4.0387837252082731e-01 0 0 0
211 1 1.8983927218016618e+01 9.7699803745545584e+00 2.7654368151332904e+00 0 0 0
1095 2 1.6054727893499397e+01 1.8104863549864966e+01 5.2704388293696569e-01 0 0 0
213 2 1.8656274613963966e+01 1.0578262724522343e+01 2.3578976431456846e+00 0 0 0
214 1 2.1190877639237272e+01 1.1544747279032824e+01 9.3981167822931653e+00 0 0 0
207 2 1.5876187101857818e+01 1.8429886661428392e+00 1.9659131963805760e+00 0 0 0
186 2 1.8610203039272832e+01 5.5754284024456613e+00 1.3538290437665671e+01 0 0 0
217 1 5.6028909224167887e+00 1.6417852435354232e+00 1.8785490318281981e+00 0 0 0
218 2 4.8754536938861577e+00 1.0776350336819607e+00 1.9321476345910118e+00 0 0 0
219 2 5.6636361395945958e+00 2.0199653781399212e+00 1.0144482042467384e+00 0 0 0
220 1 8.0356678118179055e+00 3.2606310318813621e+00 8.7718247401476948e+00 0 0 0
221 2 8.0571311596412478e+00 4.0875879758646043e+00 9.3177807231669050e+00 0 0 0
222 2 8.2665846880996057e+00 3.5296671263160455e+00 7.8671723590239582e+00 0 0 0
223 1 8.1306951194364352e+00 8.2635108869160767e+00 2.0158704089522383e+00 0 0 0
224 2 8.9342930456428729e+00 7.6924343440573875e+00 2.2273978939649930e+00 0 0 0
225 2 8.3776173238405427e+00 8.5668603650037003e+00 1.1376881913189836e+00 0 0 0
226 1 1.0841571407346434e+01 1.0189297571114471e+01 8.4779259528803728e+00 0 0 0
227 2 1.1466691831167841e+01 9.5500400285083114e+00 8.8186305730163301e+00 0 0 0
228 2 1.1071044607542264e+01 1.0467191139403592e+01 7.5539170442324455e+00 0 0 0
229 1 1.3145261309277009e+01 1.6264239685010642e+00 1.5331343532619852e+00 0 0 0
230 2 1.2278374369140154e+01 1.2133175225000679e+00 1.7143364428438548e+00 0 0 0
231 2 1.3136619477416319e+01 2.4599636015082442e+00 2.1527272825119241e+00 0 0 0
232 1 1.5718729614853300e+01 3.1677971832361775e+00 8.6114474021241509e+00 0 0 0
233 2 1.6435171431394615e+01 2.5767939475034130e+00 8.9546110862403712e+00 0 0 0
234 2 1.5998033459943676e+01 3.5717823799640600e+00 7.7497109378876807e+00 0 0 0
235 1 1.6067657535827006e+01 8.4577023916809324e+00 1.6105991463346925e+00 0 0 0
236 2 1.6469444105876313e+01 8.9524376839461492e+00 8.4875961729091465e-01 0 0 0
237 2 1.6826436807154693e+01 7.8782432532874092e+00 1.8504240244397452e+00 0 0 0
238 1 1.8302853980777684e+01 1.0026660462200526e+01 8.5399536610769236e+00 0 0 0
239 2 1.8940481604138014e+01 9.4252844188447202e+00 8.9449906271584947e+00 0 0 0
240 2 1.8252446355783569e+01 1.0700514159894501e+01 9.2154950234405320e+00 0 0 0
241 1 7.4321580274110781e+00 4.4607053976288569e+00 1.0037672063576999e+00 0 0 0
242 2 7.5711945101262579e+00 3.7608246264488372e+00 1.7023582161916619e+00 0 0 0
243 2 6.7320990809311123e+00 5.0090805935169795e+00 1.4570724919440721e+00 0 0 0
244 1 1.0249789928448878e+01 6.3926981679934096e+00 7.8257220756269117e+00 0 0 0
245 2 1.0512596379870606e+01 5.7738183451917813e+00 8.5667715706846987e+00 0 0 0
246 2 9.9812658971209363e+00 5.7821187500363411e+00 7.1422437488956092e+00 0 0 0
247 1 1.0443375047422116e+01 1.1559323414010443e+01 1.0507708512222971e+00 0 0 0
248 2 9.5870773201558226e+00 1.2146852097987146e+01 1.0929015143464786e+00 0 0 0
249 2 1.0701121348917324e+01 1.1503744338286445e+01 2.0336276999798244e+00 0 0 0
250 1 1.2745874432941307e+01 1.3007451573081042e+01 7.8315259621645454e+00 0 0 0
251 2 1.3194613755111504e+01 1.2436575490704756e+01 8.4895375566932163e+00 0 0 0
252 2 1.3324675449177349e+01 1.3708730939238444e+01 7.4402890147350158e+00 0 0 0
253 1 1.5272380481382921e+01 4.4930118215991310e+00 8.6042485625919063e-01 0 0 0
254 2 1.5501710234567545e+01 4.0546229045440043e+00 1.7217876943212556e+00 0 0 0
255 2 1.4534589863703456e+01 5.1207476277144366e+00 1.1189442284151656e+00 0 0 0
256 1 1.7887877215174747e+01 6.1097447404316911e+00 7.7062713400738065e+00 0 0 0
257 2 1.8163437118501768e+01 5.6662116375544045e+00 8.5119776708728185e+00 0 0 0
258 2 1.7098581641079704e+01 6.6383994744716226e+00 7.9919191851204481e+00 0 0 0
259 1 1.7830859763157683e+01 1.1820653799873217e+01 1.1853328496052280e+00 0 0 0
260 2 1.7042546857441032e+01 1.2334148833497359e+01 1.5049282629894207e+00 0 0 0
1142 2 1.9165948570469638e+01 2.2492112084102814e+01 4.7495470511092881e+00 0 0 0
262 1 1.9964007848841092e+01 1.3469654410785784e+01 7.8602154142299474e+00 0 0 0
263 2 2.0372966036753020e+01 1.2820073197423980e+01 8.3895416038879809e+00 0 0 0
264 2 2.0776419891754983e+01 1.4017635777550563e+01 7.5542620749491922e+00 0 0 0
265 1 9.7293092442892650e+00 6.2748243525351288e+00 2.6737274460061382e+00 0 0 0
266 2 9.0281048586449479e+00 5.7355115943710659e+00 3.0672246130465504e+00 0 0 0
267 2 1.0204217613962609e+01 5.7814127382533931e+00 1.9641975386863721e+00 0 0 0
268 1 1.2571516646726154e+01 8.1276092585339796e+00 9.7436542140626798e+00 0 0 0
269 2 1.2961594615914377e+01 7.5413035681047695e+00 9.0287486579977774e+00 0 0 0
270 2 1.1843161967831477e+01 7.6551008067988731e+00 1.0129416832744807e+01 0 0 0
271 1 1.2391251635099882e+01 1.3426983528468034e+01 2.6837068294150668e+00 0 0 0
272 2 1.3145278106707417e+01 1.3380448843683654e+01 3.2971102800277561e+00 0 0 0
273 2 1.1609378208401489e+01 1.3225495348305474e+01 3.2259635863869591e+00 0 0 0
274 1 1.4653061405045117e+01 1.5098263448496311e+01 9.5764021920270004e+00 0 0 0
275 2 1.4298259140227460e+01 1.5938150499099121e+01 9.1377831517268930e+00 0 0 0
276 2 1.5487478440658691e+01 1.5288232278043376e+01 1.0077289326281470e+01 0 0 0
277 1 1.7556724706948188e+01 5.8971096772643552e+00 2.7664706847052702e+00 0 0 0
278 2 1.6688882960289021e+01 5.6151628622863070e+00 3.0899091608552016e+00 0 0 0
1151 2 2.4394100215376604e+01 3.0132780004041344e+01 1.3002361867592716e+01 0 0 0
280 1 1.9732944078267003e+01 7.6438711369590102e+00 9.5839804713055319e+00 0 0 0
1137 2 1.5388437531136269e+01 2.9142720552844196e+01 5.4346293060167383e+00 0 0 0
1106 2 8.6258595085074443e+00 2.0373552145863428e+01 3.9124482318450422e+00 0 0 0
283 1 1.9746344052738159e+01 1.3495726044920380e+01 2.9850251561700172e+00 0 0 0
1141 1 1.9694630836997220e+01 2.1784918470519237e+01 5.1867181524896147e+00 0 0 0
43 1 2.1677565846512863e+01 1.5207248677588220e+01 6.3563208558155608e+00 0 0 0
286 1 2.2302576408386521e+01 1.4883843439574681e+01 9.5328817139025013e+00 0 0 0
185 2 1.9349018452458296e+01 6.9457043827614182e+00 1.3304196221771976e+01 0 0 0
288 2 2.2060493386898720e+01 1.5741270387685278e+01 9.1471277447622512e+00 0 0 0
289 1 5.8668477984596992e+00 6.6057109618303853e+00 1.9769159401633287e+00 0 0 0
290 2 5.3762634748007958e+00 6.3962835806621925e+00 2.8068329438739492e+00 0 0 0
291 2 6.6907781376941848e+00 7.2081453986593322e+00 2.0881535115544150e+00 0 0 0
292 1 8.5171688107097250e+00 8.5530009937289027e+00 8.3998988682244971e+00 0 0 0
293 2 8.9746791952402258e+00 7.6977278556540032e+00 8.1179045004523367e+00 0 0 0
294 2 9.2524428438954143e+00 9.1930683725389013e+00 8.4559019586033344e+00 0 0 0
295 1 8.5784976818277592e+00 1.4029743537823794e+01 1.6347217931243410e+00 0 0 0
296 2 8.2295335199602064e+00 1.3534986198670993e+01 2.3672956239001146e+00 0 0 0
297 2 7.7178217501852986e+00 1.4282091759626939e+01 1.1696752940179405e+00 0 0 0
298 1 1.1086091145407131e+01 1.5490959875800067e+01 8.7158766346799101e+00 0 0 0
299 2 1.1435488319457621e+01 1.4627146786216365e+01 8.4609563792938918e+00 0 0 0
300 2 1.0388014854914124e+01 1.5714711417358666e+01 8.0690877995255086e+00 0 0 0
301 1 1.3462433069087226e+01 6.6164329662953918e+00 1.8116658078854062e+00 0 0 0
302 2 1.3006703328202480e+01 6.4697395969308893e+00 2.6775112199264006e+00 0 0 0
303 2 1.4268281986618907e+01 7.1821856576510763e+00 1.9389282600170545e+00 0 0 0
304 1 1.6116723373476603e+01 8.1642884058335277e+00 8.4078081076363063e+00 0 0 0
305 2 1.5868075101343370e+01 8.0641172386000264e+00 9.3768801739435634e+00 0 0 0
306 2 1.6761007851958951e+01 8.8989113784356721e+00 8.3975125908589163e+00 0 0 0
307 1 1.5757528940671786e+01 1.3735361594849786e+01 2.0995960548693939e+00 0 0 0
308 2 1.5195383916703307e+01 1.3944677940903503e+01 1.3354090989372196e+00 0 0 0
309 2 1.6428438066110239e+01 1.4429931244042516e+01 2.0776392128204817e+00 0 0 0
310 1 1.8728749329124156e+01 1.5660445041283213e+01 8.5319416006263342e+00 0 0 0
311 2 1.9081907062154166e+01 1.4734491862670763e+01 8.3131860175471957e+00 0 0 0
312 2 1.7967770731909816e+01 1.5891773086762216e+01 7.9339660530911322e+00 0 0 0
313 1 3.5673460754544748e+00 4.3414273298364678e+00 1.2485477355412757e+00 0 0 0
974 2 2.1549932058699845e+01 1.6557338827390787e+01 3.1914028781914201e+00 0 0 0
315 2 4.2124044130464675e+00 3.8867544707565416e+00 1.8052034591629811e+00 0 0 0
316 1 6.3623927639417612e+00 6.1904675543417387e+00 7.7229052393222473e+00 0 0 0
317 2 6.6592617801589284e+00 6.6234341026518946e+00 6.9120294907043043e+00 0 0 0
318 2 5.7919686167998012e+00 6.8592742085661822e+00 8.1118014458246197e+00 0 0 0
319 1 6.4484195806374736e+00 1.1925153668389019e+01 1.1324887527058660e+00 0 0 0
173 2 1.1919964188273861e+01 7.1271878320304287e+00 1.3334802912333618e+01 0 0 0
321 2 7.2148693755778393e+00 1.1498772081423674e+01 1.7731394512960497e+00 0 0 0
322 1 8.9186601648154937e+00 1.3575147445997462e+01 7.6094184297817851e+00 0 0 0
1361 2 9.5288987925323330e+00 1.7853315177086067e+01 9.9891783727758092e+00 1 0 0
324 2 8.6419793768008706e+00 1.2652874104784660e+01 7.3451146350806766e+00 0 0 0
325 1 1.1131953929260924e+01 4.7940712769247984e+00 8.3894207781666275e-01 0 0 0
860 2 1.5874687685452169e+01 2.1636137366783267e+01 3.9676905058672718e-01 0 0 0
287 2 2.2983559255778559e+01 1.5099609223287780e+01 1.0206011723647052e+01 0 0 0
328 1 1.3709187140217821e+01 6.4330473295664667e+00 7.8011156231756251e+00 0 0 0
329 2 1.3290506363311353e+01 5.6221315583821543e+00 7.4980565502972816e+00 0 0 0
330 2 1.4469071499656039e+01 6.0893494432261415e+00 8.3667990458311987e+00 0 0 0
331 1 1.3867290695543767e+01 1.1828139158936340e+01 8.1526017827613384e-01 0 0 0
332 2 1.3286629651198725e+01 1.2460780809757637e+01 1.2881124452491284e+00 0 0 0
333 2 1.4587625010349457e+01 1.1628862181762202e+01 1.4559287313143168e+00 0 0 0
334 1 1.6220258691799202e+01 1.3250028559377801e+01 8.2288417729892078e+00 0 0 0
335 2 1.6311425845569943e+01 1.3818740152979670e+01 7.4624550474127229e+00 0 0 0
336 2 1.5454148754504994e+01 1.3726328991191883e+01 8.6513815633337678e+00 0 0 0
337 1 4.4632401826515657e+00 6.5135859453687281e+00 4.4043295897215735e+00 0 0 0
338 2 4.5970833434440941e+00 5.8205569085569673e+00 5.0775350505917354e+00 0 0 0
941 2 1.6551316252829842e+01 1.9706827919726535e+01 1.3551398898970126e+01 0 0 0
340 1 7.0283954119470504e+00 8.1261472855704859e+00 1.0909243268702276e+01 0 0 0
285 2 2.0511823383400113e+01 1.3574278655965903e+01 3.6021611952469534e+00 0 0 0
342 2 7.7720788817381568e+00 8.3010626771383755e+00 1.0293176835954387e+01 0 0 0
343 1 7.0089778350845879e+00 1.3244000524640418e+01 4.4601096761789245e+00 0 0 0
1053 2 2.5317542109083995e+01 2.7519249352265952e+01 3.2810338959845629e+00 0 0 0
46 1 2.4140438213965425e+01 1.6813929711460268e+01 1.3400146251342289e+01 0 0 0
346 1 9.6508683277626428e+00 1.5112510428966841e+01 1.1060403342413345e+01 0 0 0
347 2 1.0272542208815898e+01 1.5283005905017600e+01 1.0280495924372710e+01 0 0 0
348 2 1.0033848761488819e+01 1.4411148167458011e+01 1.1608054691318548e+01 0 0 0
349 1 1.1858595426199420e+01 6.3323189235424344e+00 4.1575465676195451e+00 0 0 0
350 2 1.1896021299937187e+01 7.1023191824397891e+00 4.7817186674903702e+00 0 0 0
351 2 1.0942711750231854e+01 6.2401107569545182e+00 3.7965897388154648e+00 0 0 0
352 1 1.4895883041964309e+01 8.4106297522010056e+00 1.1222937183383362e+01 0 0 0
353 2 1.4690531115003912e+01 7.5482197218364995e+00 1.1593029540623471e+01 0 0 0
354 2 1.4062475424990739e+01 8.6509034365041551e+00 1.0756681479276324e+01 0 0 0
355 1 1.4493365549653545e+01 1.3059093821976381e+01 4.2901788499957725e+00 0 0 0
356 2 1.4920394620907821e+01 1.2362270020842034e+01 4.8609936712002950e+00 0 0 0
357 2 1.5124183218585774e+01 1.3153022988788422e+01 3.5283600989422528e+00 0 0 0
358 1 1.7068251292694931e+01 1.5405268672779009e+01 1.0769131044115415e+01 0 0 0
359 2 1.7053000210433325e+01 1.6104642233465690e+01 1.1423725563553145e+01 0 0 0
360 2 1.7695818942951107e+01 1.5661478476529755e+01 1.0084712316401411e+01 0 0 0
361 1 6.9448919022340672e+00 7.7288029809861793e+00 5.2343673164609656e+00 0 0 0
362 2 6.4035915732196553e+00 8.4457851024081041e+00 4.8965454282538765e+00 0 0 0
363 2 7.8507675268929376e+00 8.1810662138930912e+00 5.3228209077616517e+00 0 0 0
364 1 9.5656366977141172e+00 9.7353196921998517e+00 1.1926268114267874e+01 0 0 0
365 2 8.8651854100486212e+00 1.0419319477720492e+01 1.1791819169015724e+01 0 0 0
366 2 9.3071523754869556e+00 9.4142637431062095e+00 1.2882299969593420e+01 0 0 0