LAMMPS data file via write_data, version 8 Apr 2021, timestep = 1691000

1008 atoms
2 atom types

0.3128405915055985 18.086714408490653 xlo xhi
-0.128430991871049 22.6988199918703 ylo yhi
0.275020853349965 19.23069514664496 zlo zhi
-0.15292703292912688 -6.3323022880742705 -0.17373692277906044 xy xz yz

Masses

1 16
2 2

Atoms # atomic

1 1 6.3194217097449545 0.9269184481224629 4.943765586709382 0 0 0
3 2 6.43329562487554 1.3191481725091148 4.053518893414761 0 0 0
4 1 3.751532363469222 0.9628243533271929 5.0414247682793905 0 0 0
5 2 4.753759985242925 0.9175061339687011 4.952459102955001 0 0 0
6 2 3.60819162959109 1.3913616546553507 5.909967736844711 0 0 0
7 1 -0.8333042794951899 6.220381366781416 5.3130257762124495 0 0 0
8 2 -0.9009992556825697 5.875629783361678 6.232203962854478 0 0 0
10 1 1.7529995198915491 6.4864152799878445 4.925551451635796 0 0 0
11 2 0.8150309799666904 6.786176595484334 5.093128247744058 0 0 0
12 2 2.3544385607227483 7.268194744625167 4.785139380378652 0 0 0
18 2 5.8599903312646795 5.066893578053208 1.2679383582155177 0 0 0
21 2 1.3690003320076034 1.994660817081932 1.1975031890871473 0 0 0
25 1 4.789002076040234 6.239587012334281 7.42439761466258 0 0 0
26 2 5.552724126300863 6.862746367210105 7.600331103522381 0 0 0
27 2 3.932225592851095 6.643800120979274 7.711245519152695 0 0 0
28 1 5.961844571798117 6.1590781986755685 2.66341144764144 0 0 0
29 2 5.868710978020655 5.833227714939971 3.6070148289653368 0 0 0
30 2 5.2761049122415695 6.809545136338238 2.6071568074413736 0 0 0
31 1 1.7048832512761607 1.1200324084228401 2.667906172740946 0 0 0
33 2 1.4453367576190996 1.4105016203966696 3.594014957784718 0 0 0
34 1 0.36640039783237527 0.6688167811988421 7.387855380300835 0 0 0
36 2 0.399975160604923 1.3791933760565978 8.139422654174279 0 0 0
37 1 6.305911289061532 2.4146606770102945 2.7868828243299943 0 0 0
38 2 5.392994909708486 2.784648447408045 2.9074964031093495 0 0 0
39 2 6.975509980575115 3.0688820018342917 3.1596595823714546 0 0 0
40 1 4.036375312665974 2.6313362945188947 7.425039264352781 0 0 0
41 2 4.865340440007629 2.8174475473895755 6.912202437991973 0 0 0
42 2 3.3792183524783326 3.3138243478422975 7.233020324037945 0 0 0
43 1 -0.4988229418394523 4.725436844969447 7.416790145256873 0 0 0
44 2 -1.097539519993942 3.934426838669525 7.196966087498521 0 0 0
45 2 -0.6250728038454219 4.891199809098781 8.389935559051995 0 0 0
46 1 1.789381975357622 4.627070613810416 2.873235429553071 0 0 0
47 2 0.9486198445765631 4.199436679262148 2.690155697827324 0 0 0
48 2 1.4841090951127158 5.2514221397788505 3.551267901299798 0 0 0
49 1 6.598048474612583 3.214756081991546 6.211438349694559 0 0 0
50 2 6.178529700034829 3.9582263049297195 5.707704497846302 0 0 0
51 2 6.606389732664349 2.349173255411201 5.702546814035271 0 0 0
52 1 3.9448500959488797 3.3943956861510904 3.7527410439598756 0 0 0
53 2 3.0763958569325744 3.861347804768022 3.5262829928561747 0 0 0
54 2 3.630743777014964 2.5516851770612186 4.169494452534127 0 0 0
57 2 -0.3092221827822197 3.1883514564739492 4.116455175403805 0 0 0
58 1 2.0152989093131843 4.303023394436394 6.430663217484113 0 0 0
59 2 2.0491880813941172 5.223755328194743 5.956412554405948 0 0 0
60 2 1.2775165761348728 4.399885572153369 7.086988936928292 0 0 0
61 1 8.629581160131227 6.8053632140752445 1.7504821896173173 0 0 0
62 2 7.770282412252143 6.492137812270799 2.1807983271694757 0 0 0
64 1 2.3799221746307895 7.054385037226456 8.474928665310147 0 0 0
65 2 1.609370696029774 7.519853243420455 8.072419408573403 0 0 0
72 2 4.183177305901034 1.049041472784102 1.0497384097327869 0 0 0
73 1 5.3208465709035515 5.139765932873577 5.0272658032889765 0 0 0
74 2 5.051876466510306 5.62179088785064 5.858325614915627 0 0 0
75 2 4.702173733429313 4.435925403669897 4.695991964839199 0 0 0
76 1 0.8511627451693986 2.3741536360972058 5.123896485897499 0 0 0
77 2 0.7153190624704562 1.7030234748975004 5.862248299959801 0 0 0
78 2 1.296498909465281 3.1640766408503094 5.502955437128777 0 0 0
91 1 8.243273737839663 6.474057997830279 5.044530286706891 0 0 0
92 2 8.15956568863472 5.626775396824499 4.561695064486138 0 0 0
93 2 9.183092482796914 6.661175690127316 4.948715434306737 0 0 0
115 1 10.120322703245927 1.0921548881753784 2.6409561438414437 0 0 0
116 2 10.080446831918428 1.7951463103156255 1.9040419190524598 0 0 0
118 1 9.098504534035568 0.7903694526525082 7.436249160031643 0 0 0
120 2 9.281613976099328 1.1986608133477334 6.548506257243854 0 0 0
127 1 8.486388395856407 4.809311574567759 7.352280721782214 0 0 0
128 2 7.8594054296898275 4.100579090437809 6.9891679576079575 0 0 0
129 2 8.263118318423587 5.475363282128177 6.67596490535426 0 0 0
130 1 10.693930405317237 4.907577126839636 2.527456796913833 0 0 0
132 2 10.915699469807835 5.580970377921158 3.2684336620384222 0 0 0
139 1 8.29782632237808 4.109812153052061 3.6862273883235646 0 0 0
140 2 9.061798874932066 4.289628471907184 3.1441959928022865 0 0 0
141 2 8.521772891129686 3.3630899266059413 4.317852688447403 0 0 0
153 2 6.343595116320369 1.0024692173587217 8.611767242176409 0 0 0
160 1 9.531903616211949 2.11314589980383 5.164506797204379 0 0 0
162 2 9.88247976080855 1.577719047358519 4.432810588834096 0 0 0
169 1 6.486066101877413 8.475967518295425 4.7342316309883055 0 0 0
170 2 7.1670865544231015 7.734707918411814 4.688587065047718 0 0 0
171 2 6.692466628840287 9.103364947796651 5.474813916872023 0 0 0
172 1 3.7316073170563975 8.37517795303448 5.055164407058383 0 0 0
173 2 3.590953501317757 9.214955752795362 4.573503061222717 0 0 0
174 2 4.697528525359461 8.257893737947354 4.911749798829313 0 0 0
199 1 1.2700858865195572 8.850204370110507 2.6352309290818714 0 0 0
200 2 1.0702268994455177 9.446059698215855 1.8943535402076073 0 0 0
201 2 0.7404182792001703 8.032446472314678 2.5114125240741703 0 0 0
202 1 0.38773306095120696 8.90566724435808 7.753866448629976 0 0 0
203 2 -0.4734793984616472 8.482894063268324 7.716065331680551 0 0 0
204 2 0.6062064703824265 9.117289241701048 6.807386183431019 0 0 0
205 1 6.691303152193091 9.96909847474855 2.582121297571449 0 0 0
206 2 6.723584310064495 9.24145078999273 3.3243964869411933 0 0 0
207 2 6.742143560943108 9.555222623415798 1.6799923592558084 0 0 0
208 1 4.220399083089896 10.078025531010713 7.301465328426158 0 0 0
210 2 4.193961213470586 9.537580403245217 6.482507169487492 0 0 0
238 1 3.794266473209631 7.997642776531215 1.8256759620003957 0 0 0
239 2 2.9092717601344216 8.232765532441883 2.150641642009791 0 0 0
240 2 4.075492485346187 8.825993411463017 1.4682112647148675 0 0 0
244 1 0.8325780050655927 9.88505680193388 5.21733002797461 0 0 0
245 2 1.070154502731431 9.519629856096115 4.350637824047344 0 0 0
283 1 10.28380728493927 8.627544998995223 2.2548719325589444 0 0 0
284 2 10.198530875642978 9.17410243405122 3.00853867882993 0 0 0
285 2 9.75159134436592 7.801086361989548 2.483302186570888 0 0 0
286 1 9.431378247995783 8.607763206834084 7.259463590718738 0 0 0
288 2 8.61181890503552 8.113998414749965 7.339497875278614 0 0 0
319 1 6.944727150382763 7.711228569198808 8.305436679575273 0 0 0
321 2 7.309218910045755 7.063556827351417 8.968814810061136 0 0 0
328 1 9.863173120726543 9.617826920367866 4.846823804045752 0 0 0
329 2 9.567023047912642 9.31084049140847 5.782588096751275 0 0 0
330 2 9.187889585039906 10.268482374790391 4.507940751774691 0 0 0
63 2 8.839753084421728 6.049073575213075 1.1690784543377328 0 0 0
32 2 2.613014638309463 0.7963803532193303 2.729159679712616 0 0 0
272 2 10.001139404332898 9.629333583278974 0.9505935208208964 0 0 0
320 2 6.824062955883355 8.555103960721537 8.806483854235161 0 0 0
14 2 4.865859689529772 4.9947457890213895 8.750091069981218 0 0 0
585 2 4.048528359391642 1.5711336059244418 8.954382282544461 0 0 0
192 2 0.5155256313639687 9.891020257487984 9.0274374961139 0 0 0
246 2 1.3698424915114202 10.710748038922118 5.464152867759141 0 0 0
70 1 3.9616306457731216 0.2344452302228921 1.6301295029319485 0 0 0
235 1 -2.1525788739898806 7.763524636748144 8.103545793389982 0 0 0
80 2 6.7661175614580324 1.797754316681067 1.2150808918789804 0 0 0
671 2 8.435274815468052 5.398040378732177 9.356988797391265 0 0 0
66 2 2.7431346537782755 7.781121396467789 9.050535498085651 0 0 0
587 2 -1.5139676996793061 6.319517559076076 9.354439849269186 0 0 0
68 2 15.23048409231245 0.9966063204609154 8.600423726406476 -1 0 0
83 2 2.4712574871828794 5.321237965585562 1.2159565455138595 0 0 0
145 1 17.55573160168298 6.810894545216527 1.5981040460643614 0 0 0
94 1 10.789003736996069 6.507125088810269 4.788331486439815 0 0 0
96 2 11.007745389109136 5.829870085781324 5.479719435355022 0 0 0
119 2 9.237418723122847 1.5531890869375706 8.006455257828067 0 0 0
131 2 11.346634545514 4.198861363471739 2.739916064898537 0 0 0
144 2 10.232227537718643 4.2443903074820115 6.8128894816551115 0 0 0
161 2 10.170739521193468 2.868425112527781 5.360985485340649 0 0 0
276 2 9.669490486529044 9.557760941156603 8.705562445687267 0 0 0
287 2 10.140996877601967 7.923564498636573 7.234585266031517 0 0 0
323 2 12.078258180611124 8.284314869020317 2.1505409637058523 0 0 0
324 2 12.751648606242856 7.169610237792744 1.4319571179807327 0 0 0
142 1 10.990640741777913 4.0698721606978845 6.294075502159279 0 0 0
306 2 13.497241688500779 10.552942985545656 2.9641663543394503 0 0 0
95 2 11.475105866391887 7.175264716946073 4.935215836607123 0 0 0
148 1 11.243759244480419 6.999737123608661 8.325902130958015 0 0 0
149 2 11.134312112837435 6.131672336929873 8.843941867824931 0 0 0
155 2 12.87103102532222 0.9966945999432587 1.5982751556382278 0 0 0
322 1 13.008022443257188 7.99381091191724 2.007682330408273 0 0 0
89 2 12.608627925277135 1.6313425810887616 4.654904063130164 0 0 0
136 1 12.702846859587796 3.2128909503701295 3.388021048364485 0 0 0
258 2 12.274802913167465 9.339081433087165 4.9143729426542055 0 0 0
143 2 11.75204968529073 3.718145324242749 6.774281358529573 0 0 0
88 1 12.555789159888354 1.002966633046407 5.401899172449377 0 0 0
137 2 13.213227079930508 3.7349474772801607 3.996265384757044 0 0 0
256 1 12.443054214102679 8.618114644248429 5.570220065238016 0 0 0
138 2 13.437012380714098 2.6710383100979884 2.984684653468197 0 0 0
126 2 12.798284704242215 1.960295493632494 6.826974991118635 0 0 0
101 2 14.833066013941371 4.964250539119713 1.3090825104231 0 0 0
113 2 14.662884737534016 6.914406941935027 2.568551977895581 0 0 0
111 2 12.683653831181084 6.398603303537442 7.38145490497798 0 0 0
257 2 13.407838905991431 8.46342092790055 5.369102095944412 0 0 0
152 2 7.2241477248693045 0.5153136362302229 7.517734316984091 0 0 0
150 2 11.64037495868725 7.598113982068951 8.980323438873187 0 0 0
220 1 3.9996143910467685 10.562603692602966 3.5044106273854854 0 0 0
167 2 11.434099119273489 5.48050266542878 1.110619917887399 0 0 0
56 2 16.709560961031023 4.5054034302711425 3.8065136269049114 -1 0 0
99 2 13.193475896208707 4.375090315246229 9.70777045165153 0 0 0
304 1 12.776323886357238 10.895323121486987 3.5718845380545603 0 0 0
753 2 4.152110810335562 9.373092545592206 8.967245163909197 0 0 0
151 1 6.53094068580866 0.19649908142200379 8.152141495658611 0 0 0
221 2 4.88750434197571 10.47345406016177 3.0384937612987244 0 0 0
13 1 4.776246889129253 4.506700642495549 9.590320617528153 0 0 0
35 2 -0.46359297001509003 0.34782762785944876 7.706414922492369 0 0 0
156 2 11.864639172139862 0.5875398718016348 2.7100930571405923 0 0 0
135 2 15.588354703440174 2.1843661855840897 6.007445668903127 0 0 0
55 1 16.971090562232416 3.6726289294982677 3.3942982426861805 -1 0 0
219 2 6.19762809742421 10.27966566993071 7.187660115058997 0 0 0
154 1 12.686142169314474 0.288365099762077 2.2842413994430224 0 0 0
289 1 15.296784777993246 9.977580007093373 2.794476337771949 0 0 0
163 1 16.165485216753723 1.1178240985032981 0.5532540058817418 0 0 0
291 2 15.368064224804353 9.53920864892098 1.9186282173588562 0 0 0
309 2 7.918515280120649 10.927153986488106 2.9182724521633294 0 0 0
22 1 0.38885746422496464 2.389949204738506 9.552194129531633 0 0 0
106 1 9.132540537081738 2.7548425047208043 9.566834325884242 0 0 0
236 2 -2.423540728372136 8.525146157139572 8.624833461304624 0 0 0
604 1 11.13959328627578 4.348068998673487 9.565140922527414 0 0 0
20 2 1.0005512422702187 3.334730753658174 0.33670265822067164 0 0 0
67 1 -2.2503241078203047 0.2578560959233743 8.104992403488891 0 0 0
523 1 -2.2973561650777103 2.5115198305414888 9.7122461944796 0 0 0
117 2 9.553795880888746 0.373592123604492 2.25034053219946 0 0 0
209 2 3.5174161562812722 10.741412911391503 7.090180144214732 0 0 0
122 2 15.73858247001177 2.7991619962507617 2.885139079250244 0 0 0
331 1 15.979029538235766 8.644628853063 0.43287943021960446 0 0 0
121 1 15.101639628719095 2.0818042453065404 2.719631437539518 0 0 0
780 2 13.154484519781457 9.451727782852315 0.5007655794683155 0 0 0
293 2 12.127921796510279 10.953021265125214 7.450290828821536 0 0 0
399 2 8.100938577172938 0.008371574044146818 0.9202824631514901 0 0 0
692 2 -2.8750863625320964 10.778660877173415 9.611145489696797 0 0 0
165 2 16.732807912648216 0.4043330788488111 0.8786613371244396 0 0 0
486 2 11.358543247653845 -0.19796766652060235 9.116813932770182 0 0 0
100 1 15.007168652099054 4.600655570085855 0.4361800146080884 0 0 0
133 1 15.438655453219074 3.0658710566219325 6.429933473842197 0 0 0
85 1 15.123207900050692 0.656089632233463 4.971299836584407 0 0 0
9 2 16.22705158017751 6.895500729233813 5.263717550695706 -1 0 0
125 2 13.89454700483225 2.9738698606261647 7.376055793570304 0 0 0
19 1 1.5456903589995143 2.509520488974372 0.3634111931607626 0 0 0
189 2 2.0036120392685257 10.642338886147568 0.41329652574108594 0 0 0
217 1 6.811856001816545 10.556054645617813 6.4759601022640965 0 0 0
123 2 15.306090871152984 1.8512017886091048 1.8273783545727467 0 0 0
274 1 9.728190082922891 10.15239658236338 9.518393083952196 0 0 0
584 2 3.082468484638043 0.40200000897649457 9.395852823420428 0 0 0
147 2 17.165585457349582 7.402957044889804 0.9377664879522547 0 0 0
751 1 3.945588824083428 8.83009047150465 9.729261005866348 0 0 0
97 1 14.041819200491055 4.768747070202926 9.675776915460158 0 0 0
301 1 15.312918936212665 10.970674337234193 6.6186504489759885 0 0 0
290 2 16.142607988167363 10.50100189217479 2.940126151828406 0 0 0
777 2 6.188021256158784 10.902201001256385 9.66913183778415 0 0 0
311 2 10.59272710001198 11.09874641223802 5.827658515024245 0 0 0
166 1 11.898345940506161 6.020179750844353 0.4229747515655898 0 0 1
255 2 15.05272633050322 8.766154680796474 4.160857610888024 0 0 0
691 1 -2.1492173846997114 10.150834909129909 9.581677132242616 0 0 0
602 2 16.803968133186324 4.38746695336738 0.46590308597316527 0 0 0
84 2 3.1290626377497794 6.563058937493466 0.7679071302580677 0 0 0
108 2 8.107282286625486 2.8184913192018297 9.696889593341597 0 0 0
146 2 0.1281989130010284 6.027687616947106 1.0910386452977494 1 0 0
583 1 3.7911683360523973 0.9903875794748106 9.69503865677085 0 0 0
87 2 15.327719298602178 1.1808572375182345 4.148274029698069 0 0 0
237 2 14.880711604766155 7.2024336425882645 7.861689681678502 0 0 0
253 1 15.07217738541347 8.35881374808046 5.08674365360119 0 0 0
302 2 14.55991408257246 10.857662905090892 7.196165674777442 0 0 0
134 2 15.249162401898007 3.7572031684735885 5.762767868471148 0 0 0
520 1 2.016915308621146 4.689341790681862 9.589650913869473 0 0 0
110 2 13.64684930396545 5.44100099954673 8.140503592947217 0 0 0
305 2 12.077927138716953 11.251110081589086 3.023685482336888 0 0 0
294 2 12.760375522387118 9.596124257356163 6.98721254976386 0 0 0
90 2 13.471467665341018 0.615663472351447 5.321787921932107 0 0 0
112 1 15.199629273523929 6.103524422857221 2.6543113283617448 0 0 0
292 1 12.815082501968842 10.286222137790613 7.6660599016071 0 0 0
668 2 12.569304226818957 1.6152286447513853 8.855297036173232 0 0 0
254 2 15.415059438266459 9.115911178011231 5.629112383960426 0 0 0
158 2 14.633908272964895 5.525709893610587 4.359639858644544 0 0 0
109 1 13.529144061404839 5.925914693604881 7.320888026048509 0 0 0
124 1 13.012969994384946 2.601587275841655 7.559444971863373 0 0 0
159 2 13.918157062632298 5.274439171608644 5.855820904681696 0 0 0
157 1 14.028589360316166 5.025574853683533 4.9146719728488755 0 0 0
836 2 12.83307442784688 9.357129874304558 9.101505807245948 0 0 0
114 2 16.128525999306795 6.369198806947686 2.302959548081443 0 0 0
521 2 1.7222161172840198 5.4691702948292065 9.115572872582055 0 0 0
82 1 2.77933704890538 5.759300156709094 0.42939532326669566 0 0 1
524 2 14.806561367661443 3.2344237474011472 9.682245247204861 -1 0 0
187 1 1.0848970250342755 10.35817437734981 0.3478307953008406 0 0 0
2 2 6.965049944799647 0.17173850957551928 5.0676697934292 0 0 0
610 1 12.96639257228101 2.2754664790466212 0.440420034212875 0 0 1
224 2 -0.045337439749052855 11.060381069458106 3.979543200032849 0 0 0
612 2 12.061841382421958 2.6683423225764527 0.5692830856119422 0 0 0
667 1 12.257210588445753 1.1072061434673004 9.617872387884509 0 0 0
222 2 3.317548417116819 10.922316374850153 2.9140064827208465 0 0 0
218 2 7.557972470000098 10.953998247847268 6.888374490857336 0 0 0
606 2 10.513237458675844 3.6404247712572553 9.331997879121584 0 0 0
775 1 6.862427835877009 10.19214039321266 9.752275356710978 0 0 0
694 1 3.905135122123501 10.333404677942491 0.40027986676897137 0 0 1
86 2 15.867763164284264 0.01175167108980646 4.97798653082814 0 0 0
102 2 14.468283481532518 3.7578970833287766 0.4244453932692464 0 0 0
79 1 7.178348523136187 1.4409707215179854 0.40897409100337595 0 0 1
776 2 7.754329687152137 10.413965538179237 9.466268086091658 0 0 0
15 2 3.8320565423974173 4.440518174827978 9.639028685070313 0 0 0
248 2 7.9106435269695385 8.233264827505048 0.5053294053472853 0 0 0
23 2 0.8877224532756287 3.1753430732255232 9.368395765185323 0 0 0
16 1 6.038838607033753 4.713526143048984 0.3428058988078603 0 0 0
693 2 -1.4062397711365235 10.728857103709478 9.74292818194398 0 0 0
835 1 12.597719466674649 8.665853721715143 9.75020041947406 0 0 0
573 2 11.956015090921957 -0.27666781168583804 17.562496964844495 0 0 0
723 2 4.283024510561187 11.098459876842767 16.335461394955004 0 0 0
164 2 9.148437632282933 0.5509919706371695 18.9310914631769 0 0 0
655 1 3.5664944254417765 0.17822142617822673 17.98334737066259 0 0 0
808 1 9.37425626105319 10.470975026065382 13.257937033737358 0 0 0
725 2 0.14143094339043508 10.918026664037331 12.34495671105103 0 0 0
620 2 6.52334315332801 0.7308812452072797 12.14260089531326 0 0 0
571 1 -5.021385657460209 0.2098762193440546 17.702607087818063 0 0 0
607 1 6.437728288157922 2.58699169586934 9.825260379985684 0 0 0
837 2 12.325424660788755 9.114182653323525 10.610755808337824 0 0 0
794 2 12.74899354330068 10.667926332152598 12.194390637083842 0 0 0
537 2 -0.7364490895778306 0.67459430866992 12.280327478755147 0 0 0
740 2 -4.852125037744349 7.1132692233333055 18.23120870630113 0 0 0
527 2 -1.969909161420613 1.9450037691692335 18.234166639590388 0 0 0
834 2 6.072823535759185 10.503852673096706 14.229888572366935 0 0 0
509 2 0.2380450090973811 0.04266858969020795 14.3663348318034 0 0 0
271 1 3.621919791796003 9.878543542432562 18.96766033271087 0 0 -1
669 2 12.027342071023595 1.677797319749529 10.354030957587135 0 0 0
505 1 3.642606871307862 1.2681703670861038 14.099693432046832 0 0 0
506 2 4.04789677742656 1.7434929444877874 14.854733970916914 0 0 0
507 2 4.268562416620825 0.4901352071470265 14.05438237207044 0 0 0
508 1 0.7168250867053223 0.8590067120065472 14.624311958435596 0 0 0
590 2 11.687211327680101 0.6857726909682262 14.592348416889179 0 0 0
510 2 1.6619888325375556 0.6594977234384755 14.622353079564233 0 0 0
511 1 -3.7123216604228686 6.459408691554655 14.324259129848656 0 0 0
512 2 -3.837567003460012 5.529968959389766 13.995366709853853 0 0 0
513 2 -3.451271169002104 6.317572353966828 15.233555533056554 0 0 0
514 1 -0.8278775524566526 6.189657668487881 14.05059575357455 0 0 0
515 2 -0.6143186012138803 5.4185371987695135 14.651481958792752 0 0 0
516 2 -1.7727573451419325 6.417058577798699 14.247530644746973 0 0 0
601 1 11.40241651452967 4.469140987291018 19.05361906479823 0 0 0
519 2 2.2177044534775074 5.33346616983701 17.94252071732233 0 0 0
828 2 8.816830583064458 8.223410415211708 11.608356364568914 0 0 0
522 2 2.000405958035556 5.002627459193283 10.492798203180037 0 0 0
273 2 4.534403210976193 9.953532007441652 18.666932785397346 0 0 0
190 1 0.7032021702833322 10.299315846337178 9.965285098341369 0 0 0
107 2 9.50391869038606 1.9837378544408746 10.12353052341615 0 0 0
81 2 0.22914929584609156 0.5418830289692858 19.048630092531354 0 0 0
17 2 -0.8518572905079775 3.775612889937721 19.160865572159015 0 0 -1
529 1 1.5607697446615731 6.3556015805427775 16.717394244246826 0 0 0
530 2 1.5420762491824123 5.966731982214801 15.815699044916402 0 0 0
531 2 0.6481968529396063 6.5759827217268825 16.91959620930032 0 0 0
532 1 2.3779002458479894 6.050481866973318 12.050978027548744 0 0 0
533 2 3.209529991459341 6.577736511378105 11.875004865502678 0 0 0
534 2 2.4558647113969743 5.668645428566211 12.97741847075739 0 0 0
535 1 -1.6545328044599583 0.9854588832664509 12.1830239474284 0 0 0
528 2 -3.033531129244718 2.718117796753874 19.1129438732162 0 0 -1
810 2 8.812383314015428 11.083222312480506 12.667667427143144 0 0 0
538 1 -2.3683030299345385 0.6104689625919416 16.945332727289713 0 0 0
714 2 1.9431367311850374 10.407496191521348 16.389030302144384 0 0 0
540 2 -2.292692345104104 1.2378839354951676 16.212794518580285 0 0 0
541 1 3.2835863628988413 2.737371320279928 11.782233092933627 0 0 0
542 2 3.452373355537752 2.0692441999076077 12.487253142953533 0 0 0
543 2 3.2476715410651167 2.248076637509091 10.963667866118039 0 0 0
544 1 0.9899646664760686 2.6279225391671908 16.779638462864188 0 0 0
545 2 0.8639382075587643 2.181004601154045 17.638984516805824 0 0 0
546 2 0.8275446760535575 1.9112528295472822 16.113702193321043 0 0 0
547 1 -2.9589339935607946 5.190171834104153 16.685366343090827 0 0 0
548 2 -3.515366913319549 4.39158423447924 16.615889777341856 0 0 0
549 2 -3.0727636427116813 5.389867032666909 17.671210869980506 0 0 0
550 1 -1.414370969800137 4.448996627037867 12.122957130576356 0 0 0
551 2 -0.653581390225717 3.887763683737247 12.300157035486793 0 0 0
552 2 -1.2532572671493747 5.177086726769896 12.774783416986596 0 0 0
553 1 3.767709091739669 3.4344875177281047 15.94685194638066 0 0 0
554 2 2.946106681712018 3.1810844308015893 16.460070717524665 0 0 0
555 2 4.466449547952729 3.6577192686012654 16.600938486527866 0 0 0
556 1 0.9201778901545019 2.86783683224039 12.900484900861713 0 0 0
557 2 1.7411277129840321 2.6359989694202133 12.351023809080669 0 0 0
558 2 0.5896152921370266 2.136849688726739 13.451584832762107 0 0 0
559 1 -3.782435152561984 3.7987958931357713 13.028584100593639 0 0 0
560 2 -2.9139501784792543 4.1024127312635885 12.586060153657124 0 0 0
561 2 -3.345621378246152 3.1308703011749293 13.57146568535154 0 0 0
562 1 -0.75555859386953 4.186520209579201 15.628140787327744 0 0 0
563 2 -0.08190214154311076 3.6873282101631473 16.18566073130081 0 0 0
564 2 -1.4525721935959175 4.5783779459176674 16.204952619962643 0 0 0
565 1 4.968935550377893 6.893696953287327 11.578509774768897 0 0 0
566 2 4.63666268082621 7.487072434549443 10.852624309779287 0 0 0
567 2 5.368057110259423 6.122595895095672 11.160777198510734 0 0 0
568 1 -0.787394902061211 6.815907898391729 17.865931856368118 0 0 0
569 2 -0.6227437035826515 5.954117215294334 18.383231961036554 0 0 0
570 2 -0.3683703429783798 7.4907432657014335 18.409022794839494 0 0 0
711 2 2.225811198982529 10.194421661496783 12.165344004751608 0 0 0
572 2 -5.213160238690509 0.9213430784130264 18.266554820323627 0 0 0
827 2 10.212057825442725 7.430740846904099 11.69682967673796 0 0 0
539 2 -3.346131761158828 0.35674245245513503 16.999128296475998 0 0 0
576 2 0.7945547500679587 1.127166712350923 11.037168072971069 0 0 0
577 1 2.030936505374419 4.842911616330771 14.403151909020744 0 0 0
578 2 1.6359015478447578 4.0107540163206 14.065402189892547 0 0 0
579 2 2.786455402533891 4.554162749970427 14.936828934858227 0 0 0
580 1 -2.2151669068188493 2.108137276421656 14.687911640519616 0 0 0
581 2 -1.8890276463413003 1.5272596048305487 13.952069021888724 0 0 0
582 2 -1.4683864876836197 2.7934660507180253 14.898117037055526 0 0 0
191 2 0.7934446026143775 9.456482097579594 10.452484825081386 0 0 0
249 2 1.2267397507860387 9.185974967750974 18.487045734011353 0 0 0
589 1 12.607114080514323 0.854936793602078 14.475673063137943 0 0 0
809 2 10.264296760839486 10.466528900142945 12.829859262978589 0 0 0
591 2 12.843319754120284 1.6078668709536696 15.082358277459397 0 0 0
592 1 9.822081712010528 0.98505017330499 15.002624178529627 0 0 0
826 1 9.582761852002305 7.923596604657158 11.14044404771577 0 0 0
594 2 9.491048229554352 1.5816050838715165 14.255646196205635 0 0 0
595 1 5.253253013044921 5.998088323228513 14.853797516828626 0 0 0
596 2 5.40421460846979 5.358897511989734 15.623497519290385 0 0 0
597 2 5.290349750804845 5.349324230726882 14.13121028085755 0 0 0
598 1 8.03630743436183 6.080066128465171 14.548284416650691 0 0 0
599 2 7.05558234320302 6.1928608219398535 14.557148163413625 0 0 0
600 2 8.115247071927614 5.509242164225095 13.716422207463177 0 0 0
659 2 10.21230253650972 0.049629945439526535 11.592911869243387 0 1 0
805 1 12.432066791068442 10.592949081335485 16.06231464904979 0 0 0
333 2 9.013629197459906 7.836700717018126 18.941102715150475 0 0 0
605 2 11.011809182428669 4.48277185918682 10.528632856335511 0 0 0
832 1 6.762014017467644 9.87747073808616 14.463495066934993 0 0 0
696 2 -1.839169574956834 10.935632951060287 19.21606894866758 0 0 0
825 2 3.8583687605007757 8.337426966273245 17.996213111039292 0 0 0
609 2 6.537813564580335 2.41192694539761 10.756514491205044 0 0 0
275 2 9.741600081264929 9.415666840153298 10.190847663031015 0 0 0
611 2 6.604270924600494 1.7317020990134404 18.507220146790694 0 0 0
613 1 10.715826040573438 6.014790421042249 16.824113218829776 0 0 0
614 2 11.282786748529674 6.749358400723313 17.196272356624444 0 0 0
615 2 9.806655014296203 6.3083878823735065 17.014804643018493 0 0 0
616 1 11.560001400496292 5.758220105017493 12.175610389653391 0 0 0
617 2 11.652675824150142 5.277499878142383 13.073705394466707 0 0 0
618 2 12.336020083027508 6.374363574432895 12.02676891608883 0 0 0
619 1 7.067487730518456 1.5275165936658723 12.260780290700977 0 0 0
332 2 9.84460089860523 9.078080901698378 18.654047624126957 0 0 0
621 2 7.997578215648528 1.304275709494024 12.000371341139827 0 0 0
622 1 6.286603576860581 0.9168023218084956 16.99871049984733 0 0 0
623 2 5.294594795485392 0.6860273542297665 17.19651598658334 0 0 0
624 2 6.331650512634627 1.3208389355377812 16.034465724776055 0 0 0
625 1 12.004050578140017 2.344335757564771 11.926988606300437 0 0 0
626 2 12.188332663119112 1.646226110469068 12.612072013956022 0 0 0
627 2 12.692713347642833 2.9829091505426875 12.264840236040225 0 0 0
628 1 10.637347945606992 2.5392921403308475 17.28376266115373 0 0 0
629 2 10.451796802074432 2.2107610593017224 18.18479315514385 0 0 0
630 2 10.310704453969507 1.8492220499427159 16.7536277527433 0 0 0
631 1 5.79037048175526 4.5576513012429904 17.02618051503709 0 0 0
632 2 5.8388249234365865 4.868566840674378 17.976365679747975 0 0 0
633 2 6.671919857642399 4.114502596010401 16.701219794163162 0 0 0
634 1 8.016270680417865 4.508218851843813 12.410231254555201 0 0 0
635 2 7.048604903461304 4.205303360845284 12.290507885014192 0 0 0
636 2 8.077460862158441 4.929794942474346 11.538850087363329 0 0 0
637 1 -4.6593328802210126 3.0668732051597423 16.149634940701535 1 0 0
638 2 12.580499473804464 3.524102804334975 15.460444203718207 0 0 0
639 2 12.439240124590484 2.75683784771544 16.747379543295036 0 0 0
640 1 9.632242371033524 2.8060316400937695 13.221089924061218 0 0 0
641 2 8.962799597283565 3.3952467466635534 12.865743113909021 0 0 0
642 2 10.247987787279682 2.65823418119827 12.511027405316515 0 0 0
643 1 5.4281828284736715 4.01127675491574 12.788819374842662 0 0 0
644 2 4.51510616213985 3.799650728880615 12.49235908605096 0 0 0
645 2 5.678453619104703 3.2195784252791744 13.313395206941054 0 0 0
646 1 8.411315887812071 3.896637051409802 16.189910732640513 0 0 0
647 2 9.32167857455452 3.8951741626940812 16.43128547491464 0 0 0
648 2 8.285814540263084 4.765222681255062 15.71287585176914 0 0 0
649 1 14.109049232934824 6.981695525003059 11.316475861622537 0 0 0
650 2 13.929571305781895 7.663448881341267 10.651198501636 0 0 0
651 2 -2.981931578750576 7.3431008938338085 11.97721660008032 0 0 0
652 1 8.161823666395932 6.67504549016375 17.779471565250848 0 0 0
653 2 7.303931023045676 6.911014029420539 17.237868507448784 0 0 0
654 2 8.074856437437884 5.811313911288874 18.196335656285886 0 0 0
749 2 -1.552502455196609 10.650697188450275 14.749487370320555 0 0 0
517 1 2.328834005239796 4.766310172499464 18.752602255011144 0 0 0
661 1 11.230032496558637 4.399463159985862 14.51066341262111 0 0 0
662 2 10.937486922233674 5.067963734243982 15.131625488829792 0 0 0
663 2 10.482884541933638 3.840508267582998 14.203423325098312 0 0 0
664 1 6.657302843190906 2.084501856749073 14.723776194203678 0 0 0
665 2 7.425237527250161 2.642490030150357 15.067076364153255 0 0 0
666 2 6.889882037836568 1.684026825046569 13.797914030051446 0 0 0
536 2 -2.196060616081928 0.2143931120500967 11.82562378231029 0 0 0
105 2 3.718631732802149 1.7451617302494626 18.626921136394703 0 0 0
672 2 8.659128858703045 6.593199090596591 10.303091322572506 0 0 0
673 1 3.990379269793536 8.524063816159122 14.020843525917424 0 0 0
674 2 4.3466068199135846 7.688570424926835 14.29005349503674 0 0 0
675 2 4.151903051012169 9.205254169448075 14.698239403750158 0 0 0
676 1 0.9762549287023569 8.261196600940274 14.262253888174643 0 0 0
677 2 1.952499102038888 8.06321317683277 14.224488708542443 0 0 0
678 2 0.5147901605323129 7.396955275022957 14.058639792317132 0 0 0
525 2 -2.1331349821357675 2.307114786939193 10.63905822604667 0 0 0
797 2 10.923692028929144 10.225417869746364 16.88034424452854 0 0 0
98 2 13.972963436431662 5.45769567742603 10.328932175232143 0 0 0
807 2 12.54496597317398 9.831262727708149 15.46849292552813 0 0 0