LAMMPS data file via write_data, version 8 Apr 2021, timestep = 500000

384 atoms
2 atom types

0.09663629631968954 14.973461703680538 xlo xhi
0.02839788936887142 14.141835110631016 ylo yhi
0.07456434636396829 13.631158653635644 zlo zhi
5.113952990630689 5.003206965242522 3.473716935244275 xy xz yz

Masses

1 16
2 2

Atoms # atomic

1 1 7.583980622419756 4.90011410576349 3.8681241582920585 0 0 0
2 2 7.213725130075134 5.773027717727876 4.1709869652100995 0 0 0
3 2 6.7725957854542616 4.524333446207405 3.427617197782349 0 0 0
4 1 9.956073195000085 6.973378343535049 11.144118425303784 0 0 0
5 2 9.55334602185782 7.821831874267131 11.390857866955951 0 0 0
6 2 10.373145637043502 6.617233716973724 11.937784718799398 0 0 0
7 1 9.91803983272903 12.491312890531546 4.1317116031222145 0 0 0
8 2 10.271451378369678 11.970832351759155 4.925306520978252 0 0 0
9 2 9.751601278418223 13.368992426350772 4.544407153710704 0 0 0
10 1 12.534401338109282 14.011322452335868 10.86255978195718 0 0 0
11 2 13.235120365953595 14.284048011979351 10.22364387337451 0 0 0
12 2 11.872630141371296 13.396227916172954 10.529949885179702 0 0 0
25 1 11.304571164251648 7.903185828172776 6.110350687539955 0 0 0
266 2 10.446129776275278 6.090178781331464 3.1378723607883683 0 0 0
27 2 10.994518251400926 7.172284653856724 6.6619260729174625 0 0 0
28 1 13.975765738731551 9.70230530883982 12.934551659139762 0 0 0
29 2 13.18435823693028 10.229934258077845 12.585248299770868 0 0 0
79 1 3.8004653674787328 8.112865938774592 0.6961700437180538 0 0 0
31 1 14.350589403538375 15.138345483913012 6.418283948987892 0 0 0
276 2 14.976793302101248 14.592626327596237 8.544180460844267 0 0 0
33 2 8.584210148478713 1.578443781710775 5.997179813244565 0 1 0
34 1 16.650017139095997 16.855830301091366 13.036651018923736 0 0 0
366 2 8.884599316491967 10.14569547081029 12.13481816706978 0 0 0
372 2 13.090703371053396 16.824479984419828 12.190209057932346 0 0 0
49 1 5.356228001343469 3.7566834891965613 2.874481963344774 0 0 0
50 2 5.27445915835322 2.769569709081984 2.656622037465367 0 0 0
51 2 4.847599160860101 4.224728634758889 2.177445155958197 0 0 0
52 1 7.72503316503379 5.392523150139758 9.905619969965572 0 0 0
53 2 7.0832070575819905 5.016064905050362 10.494729168361967 0 0 0
54 2 8.334168303165459 5.924675077473859 10.391024408398392 0 0 0
55 1 7.634867744739108 10.73217351350025 2.8160156453758067 0 0 0
56 2 8.06143093122961 9.920466305912582 2.66701659514682 0 0 0
57 2 8.37383773340666 11.346568699993876 2.710312209308504 0 0 0
58 1 10.290052705614942 12.436367151236336 9.536957544499028 0 0 0
59 2 9.73055381271488 12.763197872110734 8.803785525560365 0 0 0
60 2 10.523607267813423 11.443105910359053 9.359928363294792 0 0 0
73 1 1.2386976598477042 0.8227577500642212 0.8851591637775417 0 0 0
74 2 2.0461522764610773 0.38352498908370586 1.261893382302451 0 0 0
371 2 12.063415883438564 15.696454760778552 11.550167818723452 0 0 0
76 1 4.007468862539799 2.7998097107176934 7.3417332973834455 0 0 0
273 2 12.60193054705202 13.251171169502568 3.186147040899895 0 0 0
78 2 4.724873670509847 2.263271544279611 7.683803245721353 0 0 0
35 2 17.449126252191625 17.321098228663345 13.402450513827104 0 0 0
80 2 4.559130032962419 7.664007626053064 1.1593345289307464 0 0 0
370 1 12.097696340004147 16.46429529648112 12.146356185914602 0 0 0
82 1 6.278052071558126 9.27926774110889 7.16230431872317 0 0 0
125 2 4.9791794031904395 4.332861110187248 10.359369709238782 0 0 0
204 2 13.345831706237547 10.257680752047882 8.757459553747005 0 0 0
97 1 5.741819545083735 4.3385842463196775 6.011801291754384 0 0 0
98 2 5.4879523113788995 4.690063101995805 5.147327109245872 0 0 0
99 2 4.956084503836372 3.8434012988988675 6.316303714844028 0 0 0
100 1 7.730490143946409 5.964143194919916 12.893304259015059 0 0 0
101 2 8.17966513536351 6.477645099918979 13.576706320925588 0 0 0
102 2 7.080170436133389 5.434157824810041 13.465430656755629 0 0 0
103 1 8.072697039455509 11.174732321447632 5.999860492160925 0 0 0
104 2 7.309260953060332 10.663032057612309 6.249986687457604 0 0 0
105 2 7.712086006165862 11.786465180248436 5.352410209605454 0 0 0
106 1 10.455807769377792 12.888333497188615 12.492992221128265 0 0 0
107 2 10.903043727253314 13.472381728259709 13.179131258061464 0 0 0
108 2 9.651746537165181 12.502549668312966 12.974856063429508 0 0 0
121 1 2.727748277642485 3.036717972149459 4.367194917834895 0 0 0
122 2 3.5703618294928305 3.402079784196615 4.1787507576012075 0 0 0
369 2 10.465105947929304 15.346517351184605 5.1642338490979345 0 0 0
124 1 5.610369931141472 4.40197927284719 11.155664489254162 0 0 0
367 1 9.576414952924269 14.953324662057046 5.282508642696002 0 0 0
126 2 5.9104069524915435 3.471429127987951 11.457723059004639 0 0 0
127 1 5.541930934759068 9.946433086997537 4.3017563276085236 0 0 0
128 2 6.029154429990954 9.085710701160806 4.5102013575213595 0 0 0
129 2 6.212554503745495 10.495427628770372 3.9268846678806892 0 0 0
130 1 8.031522822292098 12.051871770999943 11.06042238609696 0 0 0
194 2 8.482314690666504 2.009417460503073 1.6862998103235802 0 0 0
132 2 8.929258180595701 12.314083312914702 10.639357839441097 0 0 0
145 1 7.020179861161961 2.052662803987993 4.9511818459915 0 0 0
146 2 6.578341090077919 2.907010473527499 5.309875751291668 0 0 0
147 2 7.317660645570362 2.1753578110764775 4.0362119191294115 0 0 0
148 1 9.207564656108662 3.815676992656936 12.17437021754035 0 0 0
149 2 8.932803403847789 4.687619400619187 12.427714720763495 0 0 0
150 2 10.04866726460503 3.5894523152375735 12.601549469471998 0 0 0
151 1 9.467825358158247 9.286521353686487 4.514310511115047 0 0 0
152 2 9.045620644857731 9.98703835620421 5.0021484314193145 0 0 0
153 2 9.92758396196844 8.720233825507515 5.160729236830841 0 0 0
154 1 11.798706009686368 10.734941283635745 11.738829571584597 0 0 0
155 2 11.273922016173048 11.545783766899946 12.05424830851639 0 0 0
156 2 12.163955423300342 10.99076061821297 10.832766483783198 0 0 0
169 1 9.133809353695897 4.381304243958641 6.071969921363342 0 0 0
170 2 8.359210500615061 4.257649155105846 5.424141799839883 0 0 0
171 2 8.809118301341378 3.982295264060553 6.922800105534013 0 0 0
172 1 11.424913170906903 5.9201334150606595 13.211834674799098 0 0 0
344 2 6.177961586709153 13.217552840440705 3.8798054479636117 0 0 0
174 2 11.948098936146685 6.742995411311782 13.446372383014758 0 0 0
175 1 11.178641032010795 11.231272869357966 6.427364193802773 0 0 0
176 2 10.987872267198346 10.541043899458877 7.0989701914537475 0 0 0
177 2 11.671968914575165 10.68190576004261 5.744322499626706 0 0 0
178 1 13.915808662132651 13.03792476019467 13.195382472856785 0 0 0
179 2 13.377195816186966 13.34646258887516 12.406593600745756 0 0 0
180 2 14.631384888951553 12.586222114369106 12.77286665028843 0 0 0
193 1 8.527593063177612 2.7194933641035752 2.414405868878065 0 0 0
131 2 7.4018431183919295 11.656257836561084 10.378289527537362 0 0 0
195 2 8.188728222345137 3.5666024487259915 1.986022481598151 0 0 0
196 1 10.677323637260091 4.126566801809788 9.84311749254901 0 0 0
197 2 10.083485430901552 4.164715822263443 10.612049779647789 0 0 0
198 2 10.521405593130657 4.916479789486557 9.302167192151522 0 0 0
199 1 11.009955280379597 9.685666175761972 2.4639045702399818 0 0 0
200 2 10.792380334756604 10.564005196935385 2.106545001511923 0 0 0
201 2 10.463622814763212 9.554357693096373 3.2690458836673675 0 0 0
202 1 13.382041531354435 10.989864760355303 9.440907116759124 0 0 0
203 2 13.238048698565448 11.797129641976852 8.94796512979749 0 0 0
341 2 6.608630156556507 8.716838605044265 11.75626338181631 0 0 0
217 1 5.641520627615329 1.2108526218758273 1.8206675103869232 0 0 0
218 2 11.304942080331752 14.607872932564188 2.2455384294546197 0 -1 0
219 2 6.0579201838194505 1.543974097770615 1.0069985646061528 0 0 0
220 1 7.986073574385586 3.093221251694313 8.243768064426456 0 0 0
221 2 7.865533845485767 3.8438831403411386 8.890371695807591 0 0 0
222 2 7.161603194362559 2.567613732504223 8.232727252185018 0 0 0
223 1 8.123320989978083 8.203676228378614 1.8181361161168546 0 0 0
224 2 8.781437378762286 7.59822182887601 2.301127796763631 0 0 0
225 2 8.409114462170253 8.390097285119166 0.8931974918589147 0 0 0
226 1 10.586421350393584 9.829701458356801 8.713654997316453 0 0 0
227 2 11.1860185593307 9.078127270556763 8.927259486138547 0 0 0
228 2 9.69971187802521 9.447467219487843 8.714073637694392 0 0 0
241 1 7.442813093813143 4.899328634332421 1.0253722913177046 0 0 0
242 2 8.12341242189335 5.419533639252876 0.4336192074414952 0 0 0
243 2 6.851968518257095 5.595482210146558 1.358832967562714 0 0 0
244 1 10.199125055796726 6.176564442351826 7.736003650385672 0 0 0
245 2 9.430746908256255 6.650098105846311 8.0347843293993 0 0 0
246 2 9.755745261868464 5.534054861202129 7.1111283065767035 0 0 0
247 1 9.930910713747176 11.846226228282331 0.9574795708518028 0 0 0
248 2 10.584843572514343 12.394555826365739 0.49586379854921814 0 0 0
249 2 9.718194929941786 11.135360751599585 0.29928289112185047 0 0 0
250 1 12.523650796936453 13.217594519756043 7.802497320157159 0 0 0
251 2 12.975055468075043 13.854564844763654 7.254803976395077 0 0 0
252 2 12.17657288190651 12.584463875205238 7.150194930070693 0 0 0
265 1 9.71840777792133 6.061841165437924 2.4860318816804834 0 0 0
270 2 12.81434901048322 7.734652800344372 10.083208024824515 0 0 0
267 2 8.980300412021245 5.547496636515314 2.908780201676046 0 0 0
268 1 12.058583060889443 7.669597253155103 9.497876640924508 0 0 0
269 2 11.328876056479334 7.4020704041712015 10.062410397957082 0 0 0
173 2 12.026867861476775 5.2969704784739085 12.72417086329029 0 0 0
271 1 11.914946827249077 13.033875919290569 2.586072623908816 0 0 0
272 2 11.145465885556648 12.7092025865023 3.137246894554198 0 0 0
338 2 4.264405509623655 6.827097892274212 4.807354461570323 0 0 0
274 1 14.605286443834649 14.997011739161763 9.334191355430276 0 0 0
275 2 14.215230755764019 15.842137792902918 9.061788295728812 0 0 0
368 2 3.914665178042195 1.5951521139054594 5.029827650809734 0 1 0
289 1 5.79100450577182 6.925166753674219 1.9186328067784626 0 0 0
290 2 6.484396257249561 7.562925343876642 2.024556323546322 0 0 0
291 2 5.510383726762693 6.648927124511388 2.809466427905435 0 0 0
292 1 8.331370976125932 8.509787395696309 8.77584915466502 0 0 0
293 2 7.604425352443413 8.803561906141878 8.198374647071578 0 0 0
294 2 7.868569525696018 8.279966674682319 9.618340798038032 0 0 0
295 1 8.489964124946978 14.062261388145028 1.9411418011530635 0 0 0
296 2 8.913970622354505 13.206887367446672 1.5658574336823008 0 0 0
297 2 4.1513970858050335 0.5700035244297439 1.9337340243289232 0 1 0
298 1 11.00049008164194 15.527719802800808 8.550185896144926 0 0 0
299 2 10.627498113198456 15.467128732542186 9.455330286734283 0 0 0
300 2 11.48957015474445 14.649524034519196 8.434489920735444 0 0 0
313 1 3.600295594655557 4.554887498932747 0.8788031282449748 0 0 0
314 2 4.042957464086242 5.194197731774619 0.2985980290352451 0 0 0
315 2 3.065198580915887 5.177542604572384 1.429328380098708 0 0 0
316 1 6.336574238192703 6.526814674354271 7.599237982000618 0 0 0
317 2 6.119690557925102 5.684592429702482 7.165737940278046 0 0 0
318 2 6.794109555544376 6.155480508458122 8.404348085377798 0 0 0
319 1 6.251921333794224 11.302939792624434 0.5234181048695958 0 0 0
320 2 6.728010705772029 11.14784004720128 1.3246067501439547 0 0 0
321 2 11.79297425527172 15.407529222020688 13.452956020744928 0 0 -1
322 1 8.82840694368875 13.53687059317835 7.602891162861652 0 0 0
323 2 8.931433457592588 14.059521076601781 6.782611908354348 0 0 0
324 2 8.611499500570432 12.666223930910723 7.166263571461518 0 0 0
337 1 4.290589743416503 6.1116372555455625 4.168707809799279 0 0 0
77 2 3.260770567552744 2.195129189531002 7.0379233767284965 0 0 0
84 2 5.448792765997559 8.796365540922867 7.0184977700196365 0 0 0
340 1 6.65950204221115 7.888282939937821 11.19618154631622 0 0 0
365 2 10.349149218707977 9.763627866787706 11.698279054370408 0 0 0
342 2 6.89041695302925 7.224592143273216 11.818154644846992 0 0 0
343 1 7.0485446460049195 13.332866533409856 4.326275983147573 0 0 0
364 1 9.52512602480717 9.384965410578728 12.059369460505783 0 0 0
345 2 7.617773747442598 13.512949332388137 3.555830436278969 0 0 0
346 1 9.577339691025907 15.257435931767892 11.045266159870165 0 0 0
347 2 9.95880965281209 14.376877263506659 11.304312627564025 0 0 0
363 2 7.796097576771541 8.065027937121025 4.778247243102968 0 0 0
361 1 6.949486892941893 7.619025775137133 4.88696131620243 0 0 0
362 2 6.891315134653897 7.498899045835234 5.819767034258881 0 0 0
83 2 6.241474661452336 9.711867743891602 8.02240076971076 0 0 0
26 2 12.060758563499734 8.329406034604446 6.52428527220862 0 0 0
45 2 6.9278044249490165 14.341517433932497 5.601452653991838 1 0 0
285 2 5.3073642502654605 12.5594567151107 1.8956592758217217 1 0 0
30 2 14.667741290329992 10.361128502545734 13.140547476800016 0 0 0
348 2 8.719034410166268 15.01732382582145 10.618304391432673 0 0 0
339 2 3.4465174046909652 6.110794768408033 3.722924525496226 0 0 0
47 2 9.457963385713219 16.111505061358635 12.48777332140842 1 0 0
13 1 15.021553657731177 5.234381850291695 4.203219776200132 0 0 0
14 2 14.216558965370044 4.95158546754554 3.7695111850378735 0 0 0
15 2 15.234885243928094 4.71192284225261 4.997387422585362 0 0 0
16 1 17.335512476918552 6.896092869127486 11.081334281728113 0 0 0
17 2 16.83060113869193 6.2368805961521305 10.539036201921567 0 0 0
18 2 18.07460288382357 7.270179550467494 10.508842054261745 0 0 0
19 1 17.38741805187326 12.224165938402953 4.416628374430109 0 0 0
20 2 18.158024987310448 12.451763252827728 3.806148631702298 0 0 0
21 2 16.664473389502422 11.921618946828985 3.809996331716586 0 0 0
22 1 19.83172146688403 13.735383217561393 10.689117026436028 0 0 0
23 2 20.468769301084404 13.979597562420963 9.994454004505501 0 0 0
24 2 20.518777474321222 13.46255732032457 11.337137594100156 0 0 0
37 1 19.03017837151061 8.05926866899238 6.0465533391620365 0 0 0
38 2 18.275523801149895 8.592401369332629 5.690088798751655 0 0 0
39 2 18.52640134607893 7.481428889268412 6.702465822794921 0 0 0
40 1 21.386213392134543 9.95084760870107 13.079970150515619 0 0 0
48 2 24.58055960426436 17.358438220068166 13.353112003164474 0 0 0
42 2 20.526029375865026 10.413807457465914 12.928083225213285 0 0 0
353 2 14.174517988282162 8.642293927747547 11.648290629241798 0 0 0
44 2 20.809945691209784 15.52536555457281 6.066569784351355 0 0 0
380 2 11.462678935019243 1.286355667529115 4.781603462917985 0 1 0
46 1 23.868457841413175 16.78415832137808 13.015582992971224 0 0 0
138 2 12.205583073885002 4.175963549876864 10.40695360029012 0 0 0
378 2 16.32697088948561 9.939600008773546 11.528580746810245 0 0 0
61 1 12.784517039765207 3.7279253265825916 2.770835718102875 0 0 0
62 2 12.010513535931 3.3790952909548593 3.256542881026036 0 0 0
63 2 12.434241797615767 4.014024940841855 1.9394186009362966 0 0 0
64 1 15.260165130365971 5.359628083000895 9.734393421722983 0 0 0
65 2 14.93449931344715 5.764361023020674 8.912134491860977 0 0 0
66 2 14.38386559487644 5.124093014391992 10.09658547052626 0 0 0
67 1 15.115310382906761 10.867566873832429 2.903931395740948 0 0 0
68 2 15.371286877628044 9.894266218506258 2.672472988952429 0 0 0
69 2 14.417627783528332 10.683767089422687 3.545361093046984 0 0 0
70 1 17.575761102538056 12.374200927689456 9.453117486201492 0 0 0
71 2 18.250219287711957 12.855627818877474 9.92640449287054 0 0 0
72 2 17.755870431576326 11.437333208492975 9.27637325911855 0 0 0
85 1 8.536834647431396 0.655869937772663 0.4873766542650846 0 0 0
86 2 9.301652625119047 0.3253893311838588 0.9491563019681937 0 0 0
87 2 13.961120075808578 4.710722074140174 13.404204068478666 0 0 -1
88 1 11.354384756611484 2.39560675792898 7.446132139738797 0 0 0
281 2 19.995674229638954 7.923238752763092 10.352482946946777 0 0 0
90 2 17.259778144826246 15.950797009326891 7.796424747054703 0 -1 0
91 1 11.23988583003405 7.983141303841872 0.4102077786999284 0 0 0
92 2 12.003095363178053 7.421001686054469 0.631665010999561 0 0 0
384 2 19.96852210187522 15.526916603392458 11.301706129093587 0 0 0
94 1 13.625660217891669 9.461200320855319 7.438676890806965 0 0 0
95 2 14.475453164474862 9.028152192777315 7.60631748316694 0 0 0
96 2 13.90280161104672 10.155984111233444 6.832494903269451 0 0 0
109 1 12.686244390209161 4.21630494492028 5.778409211033254 0 0 0
110 2 12.234961468546905 3.5699679815486607 6.405229020961817 0 0 0
111 2 13.376528522090162 3.5876576042449693 5.468638099611771 0 0 0
112 1 15.238348196637565 5.665081842340758 12.876075740850721 0 0 0
113 2 15.986796552674612 5.230618878994734 12.43070746920769 0 0 0
114 2 15.637923275140006 6.394506946258044 13.388726194446201 0 0 0
115 1 14.988034041738393 11.41242135058869 6.1906532326025605 0 0 0
116 2 14.618576868366327 11.945959409521521 5.4429348769249515 0 0 0
117 2 15.46034617878742 12.06651097708193 6.7504962029526245 0 0 0
118 1 17.685129405017335 13.064122472699873 12.236286011044701 0 0 0
119 2 18.122689133062924 13.7133498458104 12.844115075621408 0 0 0
120 2 17.077720377438478 12.692931369606779 12.899455118210764 0 0 0
133 1 10.563362831642412 2.550612455148539 3.9600747048026514 0 0 0
377 2 17.05017235480621 8.509863536065355 11.606947072229755 0 0 0
144 2 14.71019152106221 11.308350236916551 10.348666206419471 0 0 0
136 1 13.072461850934898 4.457934772806589 10.932027769459909 0 0 0
137 2 13.549477146544453 3.6446342671347325 11.237735384858212 0 0 0
43 1 21.564786851501957 14.934001672678955 6.3479687937112175 0 0 0
139 1 12.985005201550088 10.127162869344618 4.391264823546518 0 0 0
140 2 13.403741714048001 9.260699966296404 4.651483721682947 0 0 0
135 2 9.86518186651237 2.6099067120829145 3.252106106265254 0 0 0
142 1 15.44486667407437 11.53415277477274 10.95543384207651 0 0 0
143 2 16.222867871708168 11.947127487829965 10.410908481542464 0 0 0
376 1 16.95164490930481 9.383255594359198 12.040200241474123 0 0 0
157 1 14.274851327332197 2.1220441548769213 5.271469540892581 0 0 0
158 2 13.599479505584998 1.4378065772489843 5.233044956293922 0 0 0
159 2 14.669430896952202 2.2450801346762583 4.359309412676543 0 0 0
160 1 16.96683418923767 3.848386526520024 11.566086092515286 0 0 0
161 2 16.268968359295247 3.2131901763660706 11.53407222769475 0 0 0
162 2 17.72005544357172 3.4462568588968554 12.110142754187352 0 0 0
163 1 16.577914515879552 9.24767245543836 5.288673977755822 0 0 0
164 2 15.810056853341205 8.600951450029397 5.160574248295821 0 0 0
165 2 16.148969122476252 10.099212059262959 5.511354621523827 0 0 0
166 1 19.18030092233734 10.804430410884654 11.753520654874043 0 0 0
167 2 18.415952847279343 10.17610882788526 11.881208747785813 0 0 0
168 2 18.737361765142015 11.648453693864647 11.914381095202469 0 0 0
181 1 16.409646088554318 4.389573956148652 6.2791490530701575 0 0 0
182 2 16.174147875809634 3.6990346779277354 6.949417241458869 0 0 0
183 2 16.77322454521909 5.224147168193683 6.610667053804361 0 0 0
184 1 18.89529124598835 5.969049736355484 13.077199075750165 0 0 0
185 2 19.583023954318584 5.5137772667424505 12.588552354429597 0 0 0
186 2 18.22989046942675 6.365201374022221 12.434269792814359 0 0 0
187 1 18.773442416488635 11.074046939718981 6.280619976213341 0 0 0
188 2 19.341345277303844 10.408683228658601 5.788806896419934 0 0 0
189 2 18.170520107263403 11.331888343851785 5.5745570653959575 0 0 0
190 1 21.40399190319295 13.331302911186835 12.958200109717353 0 0 0
191 2 22.1676639116105 13.100765499821456 12.394399288353668 0 0 0
192 2 21.6834876552425 14.163579550596937 13.388445996371066 0 0 0
205 1 15.53562951327377 2.7055819685073033 2.786242336619102 0 0 0
379 1 17.21474168289648 14.77068109842403 5.237715322445287 0 0 0
207 2 15.209318372788918 3.3938924218784203 2.2291383036339867 0 0 0
208 1 18.574583578699713 4.312638286998825 9.408052955815782 0 0 0
41 2 22.014983204891617 10.641024205832268 13.362859889855194 0 0 0
210 2 17.823491601697892 4.2557495602768265 10.09294314971986 0 0 0
211 1 18.191770586450552 9.823598689172572 2.732608349364378 0 0 0
375 2 13.85070685122542 7.444291278344964 6.128275074482454 0 0 0
213 2 17.61608447507025 9.570764495986326 3.4861618432968453 0 0 0
214 1 20.939370444374376 11.004738988618351 9.363842041003641 0 0 0
215 2 20.323436776353155 10.966959483271996 10.121796512258475 0 0 0
216 2 20.704464299499527 11.78489281361791 8.812405062590898 0 0 0
229 1 13.057367638621763 1.1598782933481442 1.6188844652862193 0 0 0
230 2 13.071446861896552 2.0540186567409964 2.0779259008824367 0 0 0
231 2 13.361712468409447 1.448838087613142 0.7653657715052736 0 0 0
232 1 15.843580885073075 2.9933352339465307 8.482568732217382 0 0 0
233 2 15.619972023489703 3.856175385445661 8.990710581962304 0 0 0
234 2 15.054996719226338 2.451896309458946 8.46635436399415 0 0 0
235 1 15.427761057341362 8.490099125390541 1.7167958854568897 0 0 0
236 2 15.552993065835189 9.00652732274308 0.8416208608281383 0 0 0
237 2 14.552818358935365 8.05814589674836 1.7359346549670982 0 0 0
238 1 18.048537578007696 10.01479858544547 8.757228926017676 0 0 0
239 2 18.647583248102286 9.322884434424555 9.065034428566088 0 0 0
240 2 18.27721138760851 10.27055457469532 7.837884927928485 0 0 0
253 1 15.053586947388172 4.647486188603294 0.7746868825507759 0 0 0
254 2 15.73137744443178 5.212695117661369 0.3423307909348318 0 0 0
255 2 14.73135235687855 4.011897290702374 0.14562420176192972 0 0 0
256 1 17.69334323519263 6.402393583381893 7.7104397447553294 0 0 0
257 2 17.00438844042771 6.8623024530820596 8.194501870726564 0 0 0
258 2 17.923372044644914 5.657207496294136 8.290718889854624 0 0 0
259 1 17.196150202985176 11.734082807159302 1.034181025984 0 0 0
260 2 17.928809361451975 12.24161458890196 0.5392030870440015 0 0 0
261 2 17.76247192726246 11.063020277160588 1.5503852166591405 0 0 0
262 1 20.141759470385225 13.166622066321308 7.700551650805518 0 0 0
263 2 20.81897519907822 13.71055042713467 7.222431040501057 0 0 0
264 2 19.73943589979917 12.598272267543882 7.01890384951703 0 0 0
277 1 17.079025947355447 6.28958596616089 2.6096125045920355 0 0 0
278 2 16.29231622896302 5.869743128103688 3.0930198796530792 0 0 0
279 2 16.628641797214424 6.900183651249059 2.002834734973525 0 0 0
280 1 19.29691493640076 7.859030386821823 9.673506122875597 0 0 0
360 2 15.996326579319987 15.219714257879565 10.321291584401658 0 0 0
381 2 17.213576459646443 13.955046007624663 4.700675095684605 0 0 0
283 1 19.726414630011305 13.039707016426682 2.6597039664545634 0 0 0
284 2 19.38719970485206 13.883362148344123 2.1957814985870447 0 0 0
383 2 19.442706166900926 16.09185875894272 12.6202556206147 0 0 0
286 1 22.113813115701323 15.016364098202324 9.664233445381273 0 0 0
287 2 21.713730033136997 15.829112451984615 9.261858570725007 0 0 0
382 1 19.818196935861035 16.36961903903754 11.792420799202786 0 0 0
301 1 13.285466648888736 6.714379751305586 1.7085586184419432 0 0 0
302 2 13.837685782032636 5.912978461248856 1.5971082254363964 0 0 0
303 2 12.65191040435387 6.467288648946452 2.423915456590542 0 0 0
304 1 15.915092919149783 8.302387181316012 8.826244392827585 0 0 0
305 2 15.399394775503174 8.141691141998631 9.67199345814949 0 0 0
306 2 16.501877338203133 9.12102392244689 8.890322307098144 0 0 0
307 1 15.762010758885788 13.856324639812915 2.025575728174016 0 0 0
308 2 16.659034052597303 14.399858121643359 1.7916223880865483 0 0 0
309 2 15.823992738564572 13.017258506805131 1.5189189616908263 0 0 0
310 1 18.7639644747861 15.437346657010295 8.443524872318198 0 0 0
311 2 19.044308925822495 14.49664213161523 8.137412954586118 0 0 0
312 2 18.358678127868053 15.298078921835879 9.326856393494927 0 0 0
325 1 11.085872530414601 4.4991824332881 0.8349182337390261 0 0 0
326 2 10.564794543039332 5.105724354797588 1.3262345233060506 0 0 0
327 2 16.404339722220417 8.44044540738155 13.540029088313934 0 0 -1
328 1 13.489119189004604 6.124214332978779 7.569299260632492 0 0 0
329 2 12.739188247237996 6.5618327982725555 8.005934188398676 0 0 0
330 2 13.090959445196134 5.426821735422123 7.028366358305501 0 0 0
331 1 13.576505171746149 11.48354481615731 0.5670282425031188 0 0 0
332 2 12.89799539303128 11.812552754519272 1.1651077091026765 0 0 0
333 2 14.34163169571458 11.39425148568284 1.236608401806186 0 0 0
334 1 16.196280462756956 13.40765594804656 7.459606379494782 0 0 0
335 2 16.8537331333211 13.212199701908752 8.141452139807706 0 0 0
336 2 16.587969699965605 13.974450511460018 6.774863392908044 0 0 0
349 1 11.885275604367472 6.2171591438821565 4.011386914686948 0 0 0
288 2 22.52730241189688 14.583410709818759 8.890064635785668 0 0 0
351 2 12.074342128858675 5.3681143080317755 4.450653281841099 0 0 0
352 1 14.226655391291917 7.935447803944518 10.957617022844689 0 0 0
356 2 14.385897730725993 14.186816062283278 5.042454552939507 0 0 0
354 2 14.57574804255692 7.175968456947076 11.454101210829077 0 0 0
355 1 14.300211615066083 13.441223680321558 4.376086057328409 0 0 0
350 2 11.858710327617054 6.8418830119966705 4.828450521198406 0 0 0
357 2 14.742186415932863 13.598374716107244 3.5195566843712287 0 0 0
358 1 16.872013366841173 15.239231595458964 10.806987551858464 0 0 0
359 2 16.99304338576415 14.357043504689214 11.202860265571521 0 0 0
141 2 12.488374225692526 9.98098762448424 3.5799032362956043 0 0 0
373 1 14.306428971813029 7.698936192187263 5.287562133021508 0 0 0
374 2 14.428393806570636 6.813270892122028 4.9164800384172205 0 0 0
212 2 19.035953882146586 9.777390767695977 3.1786604112320536 0 0 0
209 2 18.512847964009815 3.609714589820907 8.714425741628949 0 0 0
93 2 11.019589273319816 8.431987860909755 1.2805103060234466 0 0 0
206 2 16.376109264839435 2.9585581606103744 3.200494588643386 0 0 0
134 2 10.26487081875943 3.1729099614367424 4.582096928921816 0 0 0
89 2 11.035499676628397 2.8731890925992665 8.220024978345139 0 0 0
123 2 17.188126925811687 3.5803648598088174 5.110141614153897 -1 0 0
32 2 15.159002243679613 15.660923686294948 6.595261104197697 0 0 0
282 2 19.60943564035536 7.249086533403289 8.989918104389938 0 0 0
81 2 18.274733870926784 8.601252776381537 1.4133963520956523 -1 0 0
36 2 16.969939979872503 16.319708689078087 12.27703263845624 0 0 0
75 2 15.794134945691763 1.4594753770687738 1.6155549186344487 -1 0 0

Velocities

1 -7.855885566212886 2.599466415885801 0.48991660864586983
2 -5.3601866352046015 -8.268252078253683 0.6783128775684937
3 -16.91322549464015 -7.160540375593205 9.371913811841294
4 5.198025273753602 0.5476426562423755 -0.9930282075404222
5 -16.010793075018093 -1.7086329659871298 4.540326157666873
6 -4.441013181277934 -26.743736831076674 -3.002893791210709
7 4.145492222722347 -4.826106591537891 -2.185231464877074
8 -13.483876958473942 4.843090924042999 -10.53970147330908
9 0.7980655077750874 14.730478897783817 -4.577518180030538
10 8.88067796030277 2.7280654139524065 6.428645059869097
11 13.066822822362449 -10.230148773216825 -6.130664012947912
12 4.142390562203115 4.528798146035742 0.13962335523312183
25 0.27173769262257624 0.4091800653595301 -0.3973101533338714
266 -0.5608630983405848 -15.638185233132893 19.135577870720475
27 15.557857811693681 4.511482475894057 12.801592199770148
28 -1.194544110092255 0.6435290597758171 -5.2277086145251115
29 -0.16060210250217397 -21.60922339143038 -6.328023396916498
79 1.2905448958560901 6.998774497401943 1.5252231239982996
31 -2.2077130731201438 3.2383241505142637 -0.28778019661192994
276 9.356108505229132 -1.6422896152688589 -17.397862606606086
33 -0.8935563325536986 21.811311203934384 -9.110075171581752
34 6.312732982127441 8.20339183040814 -1.1876197884502586
366 2.4762030806979993 -0.20438685023817638 7.797483838444051
372 8.752923852160816 17.187416295384157 2.8230780350961995
49 -6.658936256361463 6.11749623197121 -2.5518825094565387
50 -6.781375307632948 8.916627973261013 -0.1326519813173342
51 -4.697671648357587 -12.990792771270323 -3.1079601734108304
52 -4.3333600217997015 0.6193810052912184 -0.42610146142670796
53 9.957169586423385 -15.075900058458195 -0.5200262755879672
54 3.61532635040473 20.087291283116585 -3.385879930525924
55 -0.18467372075739802 -1.9104210329212636 -1.7955433479575573
56 9.438399125378105 8.26817510185666 9.325235574030204
57 -2.0681607839236325 7.489194848071567 12.261894229641221
58 3.207307140360544 -2.419183132271014 3.2460069152087203
59 3.6592174421287527 17.600019118364923 -11.530313988114413
60 16.674334175166187 -0.4678514655141794 -5.132967694264674
73 0.23182002965918416 2.7516154312191 4.2010064643403755
74 -0.15816660116193823 9.731978234649533 19.05410334324331
371 -5.820743504192448 -2.3189751680409683 -19.385114528129318
76 2.0605434762668806 -2.145750304768625 -2.675905853309014
273 9.4218680536844 21.526478943339352 1.8828427822937082
78 -23.679272116673964 -10.595193756805134 10.617559769872303
35 -5.372147020732292 12.344249870956702 -15.151086591340794
80 -19.371642378433425 6.161949327560338 0.03442585142179772
370 0.9956706833852951 1.1242136582793347 0.8803799885836832
82 2.78738264657197 5.635641058667923 0.029277086583048638
125 1.8538384521821616 -13.961427379074111 15.887099544035781
204 11.802583230665872 -11.557860377000257 -13.49647054841541
97 2.499260638478989 -3.4521472774750777 2.1801997885489706
98 -2.588698553909526 -10.556970445349176 -11.378121487465672
99 -5.802813324905913 -0.30269277350627677 -0.877830629937144
100 0.5946649496820141 -0.7724564608184189 -5.135024497946711
101 3.626566947529285 -5.47517819036542 -5.460756440968687
102 11.438072384605745 1.286087461441447 9.077483609505732
103 -8.170744569526658 1.8421887552446996 1.962639151075241
104 3.064633841462023 3.7082090077563046 5.847027742702343
105 -0.5872390048032631 -9.890934244222986 -7.040917125291648
106 -4.453561950248978 0.7146894715345744 0.484123192292258
107 18.101528683816 -30.62503373743893 -9.026987531597195
108 -19.9754864511165 0.1680046503379276 -11.010678626895107
121 -1.8941706082994312 0.6696459181831717 3.4859271224981967
122 -0.7232292618925386 -7.997916371621296 10.303143570502103
369 10.707523677427503 -10.145013062920766 10.5205386240978
124 -1.6333215971086903 -6.838656542645212 -2.5491460476118633