LAMMPS data file via write_data, version 8 Apr 2021, timestep = 21626000

576 atoms
2 atom types

0.27060901743209315 17.649391982582184 xlo xhi
0.06560801743184157 17.44439098258251 ylo yhi
0.4156090174304176 17.794391982580247 zlo zhi

Masses

1 16
2 2

Atoms # atomic

244 1 3.318470820616893 2.739146477881531 2.0586549341598195 -2 2 -1
203 2 2.168092600973773 1.4338885450456758 1.7615774894974672 1 2 0
202 1 1.6741885113741177 0.7122482345498391 1.2704679324912267 1 2 0
245 2 3.0934923718507727 3.688044824433284 1.9710299019074606 -2 2 -1
231 2 3.1080008120462077 1.2468402434605383 4.092634710989858 -2 -1 1
246 2 3.826209164024755 2.525334410530897 1.219115978754294 -2 2 -1
229 1 2.506552180359191 1.659408840971673 4.685079194379812 -2 -1 1
546 2 2.3324986714508755 3.405620450764034 4.744763627772223 -1 -2 0
544 1 2.1549394545328906 4.347643964107876 4.57219982404433 -1 -2 0
254 2 0.30886035669103246 4.390587648443511 4.464397451324226 2 3 -1
204 2 1.364105182174519 1.1837865954268203 0.4742577237974094 1 2 0
452 2 0.7444405014684826 1.847755760599774 3.645096123617351 6 0 -2
360 2 6.235458733798555 2.4100921220332645 3.1390752333209457 -1 -1 1
127 1 7.778734864932047 1.3959502283262815 2.9453695763679617 2 1 0
358 1 5.6686538620854945 3.1827779067120443 3.3683269698475424 -1 -1 1
359 2 4.858315598640538 2.9715269961598416 2.8570961015329206 -1 -1 1
128 2 8.23957871966241 1.2634926491684813 3.8376590820049823 2 1 0
554 2 8.67962767881737 1.976111601299311 1.6492635419930706 1 -3 3
129 2 7.46423631675186 0.5087280665804195 2.5689843103012926 2 1 0
398 2 0.8752883123664152 4.854599045660241 1.2583843628553832 1 4 2
199 1 2.1346568290142387 5.2728264654074986 2.224101578379781 2 2 0
200 2 2.294790485385963 5.083703756026227 3.1942002022320857 2 2 0
201 2 2.912387547309132 5.70665386924243 1.8556502949038949 2 2 0
153 2 1.5392963887562958 8.428171169441612 3.3777100939569706 1 -1 0
282 2 6.688081443151542 4.559549751908901 3.6640175107931228 -3 -2 2
556 1 4.776646720920237 5.57640091767295 0.7866585002788755 2 -1 1
280 1 7.16253419862913 5.307298312043384 3.9806892713505166 -3 -2 2
558 2 5.098690357334096 6.397348463984831 1.307867560646987 2 -1 1
428 2 5.410660928473325 7.749921942323657 2.9131644719155223 0 2 2
427 1 5.386128074168737 7.97043910276396 1.9446137336973743 0 2 2
7 1 8.365077659230128 7.253249853709268 2.311460569296023 -1 3 -1
9 2 8.002640160941313 6.486072579647308 2.8719787972722712 -1 3 -1
557 2 5.40718402839412 4.8411948064053565 0.8992252545096856 2 -1 1
351 2 5.679821635342874 6.406335151541253 4.500601520308565 2 0 -1
8 2 7.65028238698526 7.544927354645396 1.7517538514725999 -1 3 -1
349 1 5.125230429311272 7.1797642268868165 4.60476902439452 2 0 -1
429 2 4.748081995082947 8.706594986586898 1.8900898834839426 0 2 2
281 2 7.681316181026211 5.10581732828455 4.738989080326223 -3 -2 2
230 2 2.191210471950099 1.004243865813805 5.33461979763823 -2 -1 1
104 2 3.089062940909543 4.367224942933186 7.336877250380828 1 -1 -2
103 1 2.9673793710197045 3.340779662078752 7.397912943562189 1 -1 -2
105 2 2.017095781342228 3.2488997980320855 7.135187211932816 1 -1 -2
260 2 4.149777155514563 1.7403716399848945 7.368123455713261 1 0 3
235 1 0.41441602183127485 2.810192861054865 7.146709725921455 -1 2 -1
390 2 1.1706870456793443 0.12284705250976866 6.827956370653599 -1 0 -1
95 2 2.1249667217723895 0.3859602274672973 8.691336911709616 1 -3 0
388 1 2.1077986037829057 0.0771549371027831 7.070365521529622 -1 0 -1
259 1 4.9836268535073796 1.2857237834319324 7.280017157742441 1 0 3
261 2 5.62676279899547 1.9378757573194896 6.8466888230991785 1 0 3
322 1 8.534351909499025 1.8167853370407332 5.59106233260714 -2 -2 2
126 2 5.887356984792172 3.239385428179262 5.28581389134349 -2 0 0
124 1 6.258520895788131 3.21660524532452 6.162401014220967 -2 0 0
125 2 7.1706174291160885 2.9068717210573642 6.1249377784924395 -2 0 0
569 2 6.402717072090266 4.0138311328342215 7.7839908936572835 4 1 -1
540 2 8.43250115680844 4.404816727361251 8.664309985506073 2 1 0
250 1 8.739377950982753 0.6406910532184549 7.89182567239053 1 1 1
323 2 8.67413961631268 1.2654974492956061 6.412088094449133 -2 -2 2
252 2 8.005767952701794 0.6613551645055076 8.570788636242153 1 1 1
223 1 1.109694866281687 7.27462496145722 5.0972143047010805 3 0 2
225 2 0.7072160699930568 6.444518993713374 5.372075990273132 3 0 2
224 2 1.668250517318683 7.599742489654826 5.8391922538991485 3 0 2
120 2 1.2539706469723437 6.335833585191246 8.243280625190827 -2 5 -1
55 1 3.3314830745626174 5.989195892735913 6.533424339934052 -1 0 -1
545 2 2.725061986112005 4.849463179862608 5.206994936711346 -1 -2 0
56 2 3.194784425793523 6.411646908773481 7.4614566751646105 -1 0 -1
119 2 1.813308309468334 7.729184049977147 8.785824553290146 -2 5 -1
118 1 2.065117671390125 6.763425833270731 8.650518577833388 -2 5 -1
57 2 3.983062872906463 6.577536126397709 6.130316728038596 -1 0 -1
498 2 7.692208565618876 8.554861802749395 5.589251953878842 1 0 -2
568 1 6.800146379298138 4.4225219660223285 8.623295374596522 4 1 -1
90 2 5.047166525404514 7.9607051799146635 8.311407982742935 -1 -1 0
350 2 5.802410023301104 7.801075365392875 4.947461213247233 2 0 -1
165 2 5.577990087660434 5.833112468898642 8.971789352811678 -1 0 2
44 2 3.288512943229232 3.135994367441211 9.169154687733675 2 -1 -2
43 1 3.318958218192048 2.867877079126552 10.104500922210963 2 -1 -2
311 2 2.763636727541439 2.0718018650598187 12.457616906213216 6 1 3
310 1 2.919734508898066 1.4772043119043698 13.20043840473041 6 1 3
45 2 4.301223939249891 2.74963340307882 10.14393390162145 2 -1 -2
96 2 2.4908959230084564 1.2959734930743176 9.899475106892584 1 -3 0
47 2 4.606053999922192 0.7076414426745549 12.799787128276996 -1 3 1
94 1 1.9267177662420087 0.5854688923663212 9.647613512773987 1 -3 0
570 2 6.5252446465332 3.764749176661925 9.329347625142388 4 1 -1
179 2 6.400586328298337 1.5951090301153987 9.923072577101472 -1 -4 -2
178 1 6.032881425532516 2.4726783374480257 10.181112838767337 -1 -4 -2
180 2 6.374303444592439 2.606656588590899 11.086100246832006 -1 -4 -2
211 1 6.8702321801002295 2.5900579097357044 12.596873914706128 0 -1 -1
46 1 5.505070739496282 0.4429597349822587 12.978231116947235 -1 3 1
213 2 7.796439535417765 2.6436010052549763 12.831733403910945 0 -1 -1
212 2 6.486787271876611 1.7050792816875047 12.85532477047802 0 -1 -1
511 1 4.52328898145917 8.732544856133055 12.76704117349934 0 0 2
375 2 2.7168521728334714 8.6500238031147 13.154951839381992 -1 -3 0
374 2 1.3475432225663813 7.738920196741307 12.830574748429685 -1 -3 0
336 2 2.445037838688538 4.554677704265221 10.61786455562791 5 -2 -2
378 2 0.9955301321779919 5.921777578316505 11.567486692402529 2 -2 4
335 2 2.4267500722089714 5.917293441794693 9.867296864784395 5 -2 -2
334 1 2.5086950774960974 5.492348022405077 10.770769243301757 5 -2 -2
365 2 3.834696905035861 6.037883834584865 11.900880674837138 -1 1 0
512 2 4.614763966777816 7.815248470061063 12.491001605708437 0 0 2
373 1 1.7999978830400927 8.461917117109758 13.394203284265009 -1 -3 0
376 1 0.42633123656039323 6.616143955037605 11.966190859969654 2 -2 4
481 1 7.217828056132306 8.495422956784175 10.52124708565905 0 -4 0
135 2 8.825284185545511 8.480679476651323 9.80810565607579 2 4 3
163 1 4.970385766492061 6.5914499858123 9.229770302923884 -1 0 2
482 2 7.4880625651168025 8.071889586357422 11.37005621230936 0 -4 0
364 1 4.821851976614422 6.047864614083497 11.909364065654922 -1 1 0
164 2 4.805497914320128 6.324243863235161 10.154733058610708 -1 0 2
483 2 6.569677077160199 7.87222699796237 10.16567342882304 0 -4 0
366 2 5.179567587121575 5.5069565818406785 12.640077125516216 -1 1 0
312 2 2.7499582286365856 1.974446880850169 14.06178466479117 6 1 3
490 1 0.34072609019213473 2.309004524614174 16.885551023793777 -1 -2 -1
491 2 1.1423172637251302 2.6057447882384217 16.43691339335987 -1 -2 -1
49 1 2.837630510987063 2.765292650953634 15.478533109302527 -2 0 0
50 2 3.578935213564731 2.3798176386517964 15.997865579531327 -2 0 0
51 2 3.027235447270234 3.716106598353848 15.51441330431104 -2 0 0
267 2 7.0743420833483075 4.31209350797984 16.74163554456829 -2 2 -1
486 2 6.158045638149001 3.894478623373431 13.525555797198253 0 1 -1
307 1 4.628457130673456 2.0267421187367898 17.260875771412937 -2 0 1
266 2 7.6022725204121935 3.0901090932568804 17.604526338695706 -2 2 -1
309 2 4.632723905369207 1.0724610738146796 17.320867081516262 -2 0 1
265 1 6.818104937863203 3.481325895133469 17.15530156478537 -2 2 -1
308 2 5.538636975591656 2.503384969882284 17.22694844858994 -2 0 1
146 2 3.9836657323665383 5.608853320670146 16.683830644093607 0 1 -1
523 1 2.160215233214756 7.5265724787579265 15.797620675099227 0 -1 -2
525 2 2.000408351006542 7.816101697590369 14.856729533390535 0 -1 -2
509 2 0.642358742486658 7.211342140402827 16.42129402242403 0 4 -2
145 1 3.6949821421899216 5.366884406892686 15.785824465323437 0 1 -1
524 2 2.7041081139414076 6.734218857467754 15.642728312210805 0 -1 -2
147 2 4.371357032167486 5.1528994714419945 15.112566732860374 0 1 -1
485 2 6.411347478607598 5.197731699350583 14.35525525433052 0 1 -1
441 2 8.426661306801124 5.980869612595791 15.97953053122167 -1 1 -2
484 1 5.7295808555577326 4.712462151658918 13.86243468347172 0 1 -1
439 1 7.459737470671613 5.839621058117485 15.876060159116257 -1 1 -2
314 2 8.432329444530104 8.196132187204167 13.54168114650064 -2 1 -1
385 1 6.4241932646851145 8.255355962544524 16.714811574346033 0 1 -1
440 2 7.145602553791433 6.756703472229335 16.257031793759044 -1 1 -2
387 2 5.513586926491022 8.579869836495337 16.644737656127624 0 1 -1
152 2 1.1110099747186348 9.879276349992258 3.481010661129624 1 -1 0
151 1 1.4219561605895923 9.223548266000915 2.8361080612558487 1 -1 0
206 2 2.8616752543318342 9.589598411680974 2.0203590449215962 -2 0 2
205 1 3.6954473641140204 9.810389014718842 1.4668321248985887 -2 0 2
207 2 3.9713755697939375 10.710709709044568 1.869481596219011 -2 0 2
15 2 3.904791120667309 11.99274943997744 3.74661098786657 -1 0 -1
19 1 0.4859104319583429 11.57637454422198 4.3468017024353225 0 -1 -1
13 1 4.118601346876215 12.107790051592936 2.7470175513198547 -1 0 -1
14 2 3.284889566133431 12.626053548355161 2.4398337327211927 -1 0 -1
116 2 1.5114853429133712 11.73142190758529 0.9354432469852241 0 -3 -1
158 2 6.080604757902171 11.300174436567449 3.4324084884090897 -1 2 -1
437 2 8.53277520237631 12.794175927685652 3.877649516995206 1 1 1
157 1 6.638968267096014 10.526573198920271 3.313520189469123 -1 2 -1
159 2 6.617835609252096 10.25783777770455 2.405057361932537 -1 2 -1
382 1 7.7536330505102855 10.194379781283883 0.7431520633530354 1 3 0
383 2 8.6851254868943 9.910841568561574 0.7394330990499242 1 3 0
534 2 8.744603531686401 11.053913388646517 2.483023894360881 2 0 0
497 2 6.8485578522952615 9.517674915409762 4.639332643744405 1 0 -2
97 1 1.313177149673975 16.10362077472191 3.89911804016537 0 2 0
99 2 2.161899115259328 16.312122678001643 3.515353603799846 0 2 0
130 1 1.9894702476363206 13.307742038385072 1.844223130306937 0 -2 2
131 2 2.090172547363926 14.1112032460459 1.356802854694108 0 -2 2
132 2 1.2018946501036283 13.527138612664633 2.3631761341652666 0 -2 2
434 2 4.4082757811063065 16.83595070543327 4.016900165104737 -4 0 -1
143 2 1.8978372074311927 16.490183861877576 0.6124256915761003 1 3 2
433 1 4.163679784492695 17.28028403950758 3.1920388070811057 -4 0 -1
98 2 0.8785065207930516 16.92984017173307 3.766259326306289 0 2 0
436 1 7.902264161573299 13.518864850583427 4.146091237462375 1 1 1
438 2 7.349938555895451 13.58698834942531 3.308008806001519 1 1 1
443 2 5.265094478721246 13.223358172651231 2.2899830222646207 1 -1 -1
444 2 6.557633334555307 13.321351634378713 1.3750595383966253 1 -1 -1
442 1 6.112610394686827 13.774742145355262 2.1608402658224812 1 -1 -1
302 2 6.485592364225107 15.751771762491012 1.9539768548904028 2 -3 -2
303 2 6.232833773460741 16.70055674429561 0.8128780578453724 2 -3 -2
301 1 6.83331399584317 16.526507413643454 1.5431263256523906 2 -3 -2
435 2 4.793986024805918 16.87158550974214 2.614494563406519 -4 0 -1
82 1 2.7510951728300252 9.233557178716666 6.067882302646903 0 -1 2
112 1 3.90762258559864 11.58890245198238 5.278449670946624 -1 -1 1
113 2 3.3507210031455137 11.967297813139632 5.959518864064467 -1 -1 1
559 1 2.1688162495622985 11.997375696755167 8.085507555392713 -4 0 1
83 2 3.260793298815035 9.827035077544984 5.543839365714862 0 -1 2
560 2 2.0209088998611673 11.042567589533528 8.360569257149562 -4 0 1
257 2 1.0877712555053072 10.156742094351268 6.646253837783645 1 -4 -1
430 1 1.493973624367889 9.276167234592776 9.04308274215868 3 -1 -1
561 2 2.935650035923885 12.313374680626836 8.645823748340446 -4 0 1
84 2 3.3392493173521887 9.193317528537431 6.8302037637309 0 -1 2
114 2 4.801157990757434 11.578054277828544 5.686947456692195 -1 -1 1
496 1 6.8047638435819335 9.028571997518261 5.502797873358444 1 0 -2
41 2 7.102158953037359 10.729893965618627 6.041224852818467 -2 -3 0
42 2 7.063633628279906 12.238971479252493 5.411313724202257 -2 -3 0
40 1 6.625684180003662 11.579347300338844 5.957234163117433 -2 -3 0
400 1 8.867181262801644 10.400650139407588 7.387664640469651 1 -2 -3
122 2 6.9195689242028875 12.115916884278048 7.722867006695565 1 0 5
123 2 6.038025877210205 13.059792610012714 8.581904476811475 1 0 5
121 1 6.827594930660833 12.507663016294876 8.54912445661285 1 0 5
88 1 4.76486303090399 8.886797087685679 8.103148614762423 -1 -1 0
89 2 5.430546948958709 9.209398234077403 7.479843660630268 -1 -1 0
521 2 0.9743842566447243 13.106921240094723 4.791998762109908 1 -3 -1
522 2 1.1353197347679092 14.718142617704073 4.76574331778505 1 -3 -1
174 2 3.9159258545755233 15.384240957332862 6.303680271117774 1 0 0
173 2 2.6855191112648646 14.474714682325967 6.179847829075666 1 0 0
172 1 3.20777854424348 15.004993349032928 6.855937721608487 1 0 0
389 2 2.4002374575295096 16.498269074036802 6.979518029492551 -1 -1 -1
530 2 3.7160586299927973 14.120503020025076 8.393432669064813 -2 2 3
520 1 1.3039797353843456 13.891079911125724 5.289983193476794 1 -3 -1
423 2 1.0455329953218595 13.423945068584118 8.128950736827708 0 0 5
529 1 4.117118076741213 13.552138112950367 9.100980576148881 -2 2 3
422 2 0.33265864769093767 13.899401449515203 6.9769035837643365 0 0 5
299 2 8.883122278318007 14.180833353466353 8.069243795583684 2 2 -2
243 2 8.06775887566752 16.422046721746835 5.335995978251891 0 0 -3
338 2 4.836126990987854 17.308581812964405 6.154848604558952 0 2 1
242 2 7.625329838608788 15.009841426407709 4.968532599258061 0 0 -3
241 1 7.495646102206471 15.72281004371541 5.648146430870069 0 0 -3
337 1 4.898568151547555 16.4992245829045 5.590511495715211 0 2 1
339 2 5.792627790480612 16.202062672634337 5.518441242279834 0 2 1
300 2 8.425520043083145 15.194414115719166 6.910259492562768 2 2 -2
102 2 5.875709349065697 17.403334758666883 8.470564796112834 -1 3 1
185 2 4.337083678376408 9.825802891425166 9.863482295171936 -3 -4 2
432 2 0.5449923121162824 9.11202198391365 9.318638962008212 3 -1 -1
431 2 1.9932884791916536 9.575813900768956 9.882269823950868 3 -1 -1
184 1 3.6866051455647213 10.123326074659518 10.527976382841496 -3 -4 2
148 1 0.8657543890568049 10.904973913287543 12.888547371672916 0 2 -2
238 1 3.0956726465615243 12.275967993256932 12.32900933326694 2 0 -2
150 2 1.6927591352643923 11.385599404900507 12.631191306434978 0 2 -2
149 2 1.0064476757381935 9.90382722670474 13.058400027522952 0 2 -2
239 2 3.4363474932413336 11.643676233325635 11.663239566270335 2 0 -2
240 2 3.406165549107754 11.925243648813796 13.206368864435152 2 0 -2
186 2 3.986168792592505 9.59735095863744 11.342891815193054 -3 -4 2
191 2 7.461077526901786 10.139177612888266 10.554649294132197 0 1 -1
190 1 7.582098718725425 11.130992069031935 10.756675861938465 0 1 -1
192 2 7.053297626065367 11.575176139948969 10.030678865496405 0 1 -1
347 2 7.187886073344409 11.531831140609277 12.563062258303342 0 -2 0
513 2 5.349380179290914 8.984950477772081 13.187248159422696 0 0 2
219 2 0.4017429429266634 16.684407553670297 12.885432663957623 4 -1 1
327 2 2.223809894884083 17.32003183374644 12.523764826582253 1 1 1
77 2 2.9450225944542168 15.469319107571597 11.38020486255152 0 0 2
531 2 3.899100160030658 14.132676700595914 9.855037221593877 -2 2 3
76 1 3.6221176983961856 14.721099951359554 11.326929471910452 0 0 2
78 2 3.2004181979996598 13.965891429895606 11.69375200014892 0 0 2
325 1 1.72586263543388 16.691174061993646 11.990396138439346 1 1 1
326 2 1.6175649597924502 17.089381595206945 11.098506429936608 1 1 1
168 2 8.684162037497238 15.025417314262805 12.55724509473096 -5 0 -3
48 2 5.734611474627482 17.20036767172968 12.232577764752396 -1 2 1
100 1 6.551697545213313 17.36647343891817 9.162843628328915 -1 3 1
101 2 6.207609848809241 16.71955485458324 9.783989980891064 -1 3 1
275 2 5.359696592238001 15.271310978591499 11.23947954355285 3 0 -1
274 1 6.119288408903154 15.86749689952073 11.226325486338338 3 0 -1
276 2 6.857536103379729 15.32371711193422 11.484784399604454 3 0 -1
166 1 8.210850431676185 14.445790862975437 11.953716294530777 -5 0 -3
167 2 8.883493710914363 14.17844451104967 11.260940904639813 -5 0 -3
117 2 0.7025222337888677 10.541591675163794 17.622650442855875 0 -3 -2
411 2 3.293301102747264 8.864619851654968 15.96053905525032 1 -1 -1
410 2 3.8311957843685156 9.706877212907473 17.15290632565214 1 -1 -1
363 2 1.2658953406179039 11.951262969945697 16.145503890701978 -2 -1 -3
32 2 3.8460469409391957 10.87280396101902 15.387708624144206 2 0 0
409 1 4.049031642243169 9.428666540291305 16.276747125279275 1 -1 -1
33 2 2.8153152257649072 11.981358204948208 14.95266601634457 2 0 0
31 1 3.709770738704028 11.650768714354712 14.77644691294911 2 0 0
361 1 1.2873744317336957 12.365454149179014 15.242500674687165 -2 -1 -3
362 2 0.8266810255904768 11.760209070415218 14.646822391822464 -2 -1 -3
115 1 1.3919355205393984 11.232732438338424 17.48826743387418 0 -3 -2
384 2 7.584459670161458 11.116869748811919 17.74995634917497 1 3 -1
346 1 7.519515582875632 11.551577533282448 13.478116021104626 0 -2 0
343 1 6.843359185854165 9.080782125745593 14.16406369317716 2 -1 1
345 2 6.577506006704004 8.939087418121803 15.166777603665572 2 -1 1
386 2 6.924120084294497 8.921642391967488 17.270245769393444 0 1 -1
526 1 7.258017346376175 12.796712084233457 17.328580568326206 -1 3 0
344 2 7.080369287593111 10.030029324842655 14.027595720411531 2 -1 1
348 2 7.019561810145028 12.26935765783744 13.959402028319257 0 -2 0
528 2 6.593630733505371 12.97219512090972 16.627760666468852 -1 3 0
2 2 5.065163050606473 12.668525517312629 14.90099391048754 2 -2 -1
142 1 2.1816775021596397 15.656010471738552 17.600070609540595 1 3 1
39 2 3.983903597732187 16.157301331961772 17.174662189975642 1 4 -1
144 2 1.549535263301817 15.388307352698185 16.92293398070813 1 3 1
455 2 0.6430033255284366 13.776753607917733 15.286581766230714 0 3 -1
454 1 0.3832947735009338 14.715308535096673 15.596279936520375 0 3 -1
37 1 4.822218735744427 16.709501795210457 17.068397462608345 1 4 -1
1 1 5.939161196398294 13.145361394705319 14.937657372974588 2 -2 -1
527 2 8.038820194222238 13.328918993307784 17.031273212510214 -1 3 0
38 2 5.252722431737767 16.29162905734216 16.281439395649183 1 4 -1
342 2 8.630397453714359 15.472237435966065 15.689738851978802 -2 -3 -1
340 1 8.458271406494376 16.08227092094859 14.972401629420043 -2 -3 -1
209 2 6.771075369595099 16.040141743902172 14.836784438422933 -1 -2 2
210 2 5.423342865793681 16.493827663697832 14.190019284903522 -1 -2 2
3 2 5.742422570931413 14.073957325874845 14.764576911877175 2 -2 -1
208 1 5.81559718951241 15.818915692349387 14.782073669675297 -1 -2 2
341 2 8.746116336019439 16.94564624808554 15.227664415314988 -2 -3 -1
445 1 10.982076706568842 3.9081303967821643 1.94961092494731 1 0 -4
446 2 11.887222151168961 3.8193640753182767 1.6580198157637263 1 0 -4
555 2 9.796718580394197 2.8559333307092567 1.0546007323741846 1 -3 3
575 2 10.892128474516662 3.3142149139637254 3.584570037677135 -2 3 2
574 1 10.852949173947136 2.9637934967060646 4.530865828737199 -2 3 2
576 2 11.189232759095388 2.0209329640010956 4.442354108881907 -2 3 2
553 1 9.047023091836554 2.3232190054497215 0.8292682374264145 1 -3 3
294 2 10.147116969998136 0.29442047907200003 1.2790047007213623 2 1 -1
424 1 11.986024918042299 0.5136183434633057 4.656948433693279 -2 -1 1
277 1 13.671814899831306 3.692535698769758 1.3650603023784127 1 1 0
63 2 14.425461493896448 2.2061941007838257 1.6639249171161108 -1 -4 1
61 1 14.951701960085485 1.3867141753918275 1.7111977605358208 -1 -4 1
62 2 15.703486318612178 1.4990323901087816 2.325433483714525 -1 -4 1
279 2 14.347777185117337 4.336732526247947 1.7542886890988274 1 1 0
451 1 17.36744074346701 1.2233900535352153 3.3715613690882944 5 0 -2
182 2 14.188209666541521 0.1356857758166655 2.3625275275409248 -4 1 -2
453 2 17.63720853621535 0.9812893380951506 2.4465148086885984 5 0 -2
447 2 10.799104127238005 4.8441879633991345 1.8011228501630483 1 0 -4
108 2 9.846608943986146 6.822625865609873 1.658011370541898 -2 2 2
106 1 10.725467461290824 6.462090907676763 1.3694371388548792 -2 2 2
107 2 11.423923673335524 6.9862039030226475 1.84594291791782 -2 2 2
472 1 12.603968691732032 7.635880350049822 3.0184523610960454 2 1 2
473 2 12.07787747837963 8.383895704334169 3.4182821998170625 2 1 2
552 2 13.04315387706853 8.691088169751026 1.378673743292264 0 -2 2
30 2 12.38318092705741 6.578085782904503 4.597103844859658 2 1 -1
474 2 13.595162779173787 7.793376829730483 2.912532685887028 2 1 2
253 1 16.741112464614726 4.5174647621315005 4.27216990092168 1 3 -1
329 2 16.04028194658927 5.455392579269915 2.9851809479624523 0 3 -2
328 1 15.470808051180423 5.631624350788868 2.1482521361700133 0 3 -2
330 2 15.515261591121812 6.557841583121541 1.9940770852988763 0 3 -2
10 1 15.327466468312148 8.313244628829482 2.355403669451134 -1 1 3
399 2 16.663067010580978 4.8474768879639445 1.350013089332898 0 4 2
11 2 15.656891040528238 8.608893946539139 3.2347256997770626 -1 1 3
397 1 17.413087077940318 4.7298937406122175 0.7649812939005987 0 4 2
12 2 15.853642319662137 8.707623522715455 1.6017766741912824 -1 1 3
270 2 12.139247880690704 3.344565247925304 5.45793340872736 -1 2 3
66 2 13.266691598845844 2.606581798902753 7.418973894664804 0 -1 0
64 1 13.283562838010242 1.9598898956118607 8.136225437814344 0 -1 0
572 2 11.524076824185727 2.1222893525702693 8.768891438227863 2 -1 3
268 1 12.907261366859643 3.4654919833623152 6.048018368085234 -1 2 3
324 2 9.370615788420565 2.310330122298735 5.288473918432097 -2 -2 2
573 2 10.16133879941082 1.5941035576517957 8.697645874807195 2 -1 3
539 2 9.880317473490999 3.640485673877541 8.823771140811937 2 1 0
425 2 12.610969106027689 0.28542978124367446 5.400302311652341 -2 -1 1
537 2 13.628113831263068 0.5084591765771266 7.239905278821917 -1 -2 4
236 2 17.473117517658125 2.214576187686175 7.876881675490211 -2 2 -1
65 2 13.982423513818961 2.3889043506132652 8.670459635426822 0 -1 0
177 2 15.808784493500868 2.835700484453164 4.914521030008656 0 -5 0
549 2 16.207651233343867 0.6839926483676838 5.985489682050309 2 3 -3
175 1 15.561927398106253 2.260841482634306 5.626838723857926 0 -5 0
176 2 14.648883314103886 2.736710127363106 5.809262988122948 0 -5 0
237 2 17.02622178138164 2.632130483822152 6.554268887829895 -2 2 -1
357 2 16.20468419112022 0.5759220277615216 8.72545711338258 -2 2 -2
355 1 16.767583264270016 1.3344991331081866 9.059416550780618 -2 2 -2
35 2 9.33679131998925 4.581034336157924 6.6463672924673105 1 -1 -2
538 1 9.408857178626752 4.467622728130415 8.61864888437849 2 1 0
36 2 10.025011055483697 4.696073471706941 5.28368650588065 1 -1 -2
269 2 13.020448142969936 4.436093608379203 6.095167252212106 -1 2 3
470 2 9.522879782633323 7.37914338077393 6.117316059585561 -1 0 3
34 1 9.198020896830046 4.996898609178947 5.800641515135446 1 -1 -2
28 1 12.57516731854134 6.259510794188382 5.498144754305809 2 1 -1
420 2 10.248509504713928 5.811300754036022 8.181759030005574 0 1 0
419 2 11.656109637234685 6.343408500869811 8.432041001901307 0 1 0
418 1 10.785902204255382 6.599337890543868 8.061118846971056 0 1 0
287 2 12.048419404181551 8.22211178187283 6.8393206843922 2 0 -2
469 1 9.507783307135837 8.281395236094376 5.791572726676731 -1 0 3
134 2 10.165312293020856 7.906173952094342 9.08734540470309 2 4 3
288 2 13.25012516515846 8.371253441281533 7.706817182180131 2 0 -2
91 1 17.28925794824201 5.4735613917152195 7.689199222031941 0 0 -3
29 2 13.566923561861307 6.363779856947178 5.6014550123885405 2 1 -1
255 2 16.378410411961937 5.07290968969699 4.963533517975649 1 3 -1
271 1 15.306172612168966 6.365891939142779 5.769842928238914 -1 2 2
273 2 15.623736293372074 7.253319777591855 5.417253065485121 -1 2 2
272 2 15.341502585682438 6.578559980411572 6.696545423072669 -1 2 2
92 2 16.531690777959124 5.639938705541947 8.244524428531754 0 0 -3
187 1 14.638506480263855 7.322214947701053 8.435317757842952 1 -2 -1
188 2 15.324646064919081 7.6495866899856475 9.031438082336404 1 -2 -1
189 2 14.132097165956218 6.604106694387362 8.86585402520061 1 -2 -1
93 2 17.28119048089088 4.468054898837872 7.747043736528252 0 0 -3
193 1 13.224935301665353 0.7006526721993387 12.765578972438645 2 2 1
283 1 10.77328064962444 0.6556331860665241 11.428384549388142 -2 2 1
571 1 10.691196249405477 2.2206343729283033 9.200022249533722 2 -1 3
284 2 10.65980808846848 1.3457178649550596 10.704128271446557 -2 2 1
566 2 9.914873496347518 1.4264436082272025 12.700251041349052 3 2 1
296 2 13.02228383971675 3.4948075445791327 12.144816883875805 0 2 -2
379 1 11.17047668073772 3.829766191357344 12.545004456778253 1 0 -1
381 2 10.535359521103722 3.187556470843455 12.907128922734412 1 0 -1
565 1 9.532543442767828 1.9751888562020241 13.403318464553804 3 2 1
194 2 12.474836127523401 0.5323909255112509 12.127616183824387 2 2 1
297 2 13.874609625154868 2.068349613162255 12.257678600107047 0 2 -2
295 1 13.883412102539026 3.035768377500338 12.004386766911201 0 2 -2
67 1 15.091219854022645 3.251440894739796 9.626213355346309 -1 0 -1
69 2 14.814469303553402 3.1312425873389684 10.539451409186746 -1 0 -1
68 2 15.777951617968181 2.5740180405505853 9.368718437225802 -1 0 -1
356 2 17.623819747390975 0.9746925081663126 9.381176124694216 -2 2 -2
133 1 9.748491911993515 8.71741422789912 9.423614855764521 2 4 3
313 1 9.033691031392369 8.04675122597473 12.774512303003412 -2 1 -1
23 2 9.30137745880774 6.532700588972529 11.408403164313185 -1 -2 2
380 2 10.575298577375213 4.486692440152721 12.258545830251945 1 0 -1
24 2 9.798305218718763 5.580048348373559 10.245119436414608 -1 -2 2
22 1 10.033088425909035 5.941548816607652 11.139928399352979 -1 -2 2
506 2 11.56709807486524 6.857100952978068 11.317840023019297 -4 -2 -2
505 1 12.469394626454772 7.134461091098349 11.276699604130881 -4 -2 -2
415 1 12.962426738771804 5.48836081100058 9.3619507700693 1 -2 0
417 2 13.287287622815454 4.5937558409575825 9.380768043410614 1 -2 0
507 2 12.896380026609226 7.106669723535966 12.170377996244442 -4 -2 -2
416 2 12.78646705719358 5.833982450514583 10.237849983424223 1 -2 0
377 2 17.133577968930204 6.157219375748826 12.551953530331776 1 -2 4
136 1 16.675562889535552 8.054892872380302 9.966488094533542 -1 1 3
137 2 17.192712073892196 7.492147490383901 10.637641733381638 -1 1 3
450 2 9.310347692278022 1.4861930642012893 16.54762999531132 0 -1 1
263 2 12.469051299338863 0.8926406948761634 14.274515844800332 3 1 1
449 2 10.55817308907231 0.9461925946930816 15.891183089255767 0 -1 1
448 1 9.603203322922953 0.8934979071814713 15.848937608859874 0 -1 1
262 1 12.306801518341722 0.9843481341603187 15.265892978733962 3 1 1
290 2 13.076592339021666 2.380287158494426 15.807196220644645 1 0 -2
567 2 9.543494077730228 1.4663770914017356 14.279851720437645 3 2 1
110 2 14.765025982882383 3.304832478507343 13.505460835630116 -2 -1 1
407 2 16.480655828184226 0.543020413148902 14.496015066047242 -3 -2 4
289 1 13.535342149459778 3.238816131835232 16.1333672629882 1 0 -2
278 2 13.61462617110252 3.5325628063525767 17.75589215919398 1 1 -1
492 2 17.546068229833754 3.0724774361247893 17.507090964154898 -2 -2 -1
162 2 14.479684200154981 0.6663086018438124 17.557392968543088 -1 -3 2
408 2 16.886330273340246 1.3697459847433444 15.689603208769032 -3 -2 4
406 1 16.075080709962172 1.097263197777384 15.194884028416963 -3 -2 4
109 1 15.559475686844076 3.3851486105761244 14.084634800838147 -2 -1 1
111 2 15.790867943605926 2.487596763272026 14.4401167698175 -2 -1 1
291 2 14.256533087965463 3.3941991675104273 15.429457755950182 1 0 -2
161 2 14.90470445178653 0.2022698907279732 16.136860499022752 -1 -3 2
18 2 10.764771004733634 6.045753352321305 15.580606885038092 1 3 0
16 1 10.190363202174455 6.711471921341158 16.077649295614844 1 3 0
371 2 11.730144426742678 4.733586240782074 13.966181119365931 2 4 -4
501 2 10.48742493047371 8.15139739544567 15.400338313020816 -3 -1 -1
372 2 12.44387748400234 4.449082102138395 15.405844020745409 2 4 -4
370 1 11.935605747841057 5.120357681816122 14.862410702341728 2 4 -4
17 2 10.406462503746221 6.619299155363162 17.04837721801559 1 3 0
405 2 13.168641578997939 6.1343597668309995 14.316293673334917 0 -2 0
458 2 16.793024866258136 8.626986062420418 17.07158728778115 -1 1 -2
332 2 13.480724188172369 8.465948565625444 14.162682884491314 -3 -3 -1
508 1 17.060246718397785 6.994139188742982 16.563195163237648 -1 4 -2
221 2 15.989308593910073 5.047595184341983 14.217443761604299 0 1 2
222 2 16.455851232748188 6.479700099198902 14.936362421190658 0 1 2
404 2 14.61226911507088 6.66096286968354 13.753505687245768 0 -2 0
403 1 13.636058808941005 6.828285396764162 13.795437387683258 0 -2 0
220 1 16.21918459538458 6.00332645822216 14.062438070708376 0 1 2
510 2 17.071956111925196 6.133414911958777 17.07405981498457 -1 4 -2
59 2 10.570513980964645 10.144583187957041 3.505805453708317 2 -1 0
58 1 11.091495067239627 9.577479744084327 4.173812492446766 2 -1 0
533 2 9.936310145324471 12.038306632904105 2.208056583128789 2 0 0
551 2 13.034951434109676 10.131334884570323 1.7769555445466985 0 -2 2
532 1 9.507420671229898 11.527654937474834 2.96366606683759 2 0 0
87 2 12.310939033877156 12.402096709202002 2.2344091959012125 1 2 -2