LAMMPS data file via write_data, version 8 Apr 2021, timestep = 42089000

576 atoms
2 atom types

0.33169081710573306 17.588310182892503 xlo xhi
0.12668981710929886 17.383309182893026 ylo yhi
0.4766908171053383 17.733310182894535 zlo zhi

Masses

1 16
2 2

Atoms # atomic

427 1 3.378494387847322 3.2853156056540684 3.7790349965778893 1 -2 1
486 2 3.5783379281482213 1.0732079776904868 2.145057255338432 0 5 -1
263 2 1.1632645928188101 1.6407786470474095 2.3930304068803387 -3 1 0
429 2 3.9763198119889704 2.724105576316495 3.239606447119668 1 -2 1
262 1 1.8017908283110562 1.1511353183322766 1.8438303759607717 -3 1 0
57 2 2.6589822746438454 1.69301125508529 4.703031013055255 1 2 -1
428 2 3.9320932172206606 3.9749604234584126 4.14442882675522 1 -2 1
484 1 4.475886505415968 1.2646116290879637 2.32729088948522 0 5 -1
36 2 2.215827589010752 4.342687677724837 2.198632919525864 1 4 -3
184 1 4.061086120271991 3.9506706327560726 0.8255032497701099 3 -1 1
264 2 1.4970072305525701 0.24049209611628797 1.7634876245768116 -3 1 0
185 2 4.7290717293991795 3.4743712033287353 1.3406691095132752 3 -1 1
485 2 4.849933064034773 0.5513236015606294 2.862489099334128 0 5 -1
353 2 6.679867024308051 3.3280421426681444 2.916165431468923 -1 1 1
352 1 6.825054393731767 3.6412082127706227 1.967273962421014 -1 1 1
481 1 6.638643727893213 2.813370803560194 4.54443356161144 1 -1 2
521 2 8.536618679310696 3.234471816073937 1.887126575932707 -2 1 -1
105 2 5.335280757786991 0.6894958980893345 0.8267656790082173 1 -1 3
34 1 1.3605153399669694 4.879507262950403 2.290652387133573 1 4 -3
35 2 1.6044299874858028 5.81724279037173 2.0570040904998343 1 4 -3
274 1 1.7645548259277184 7.835216449962475 2.9301616447425176 0 -1 3
225 2 2.8345165200174045 7.505083011902458 4.314971782059917 2 0 -1
276 2 0.8903529014940723 8.056700095015922 3.2930508978551556 0 -1 3
275 2 1.8966874402390053 8.61955594919841 2.364253469845511 0 -1 3
440 2 0.48836681549455274 5.685235870335046 4.13913641631613 -1 -2 -1
354 2 6.896791778870288 4.592702072212855 2.05392850679519 -1 1 1
571 1 7.27425109052321 6.3195261622468415 1.8494840814073186 -2 -2 2
572 2 7.457936649834693 7.010004790553256 2.4917719596005106 -2 -2 2
573 2 8.081848194043419 6.245061005017336 1.2908950273554713 -2 -2 2
59 2 8.194060964599068 7.8821738676126385 4.445325841085241 2 2 1
58 1 7.71668742910989 8.280446067619696 3.662903075773722 2 2 1
51 2 5.898766100031098 6.463787458640442 0.6867796773643895 3 2 -1
186 2 4.653774936772904 4.6905584129875955 0.5084104345288845 3 -1 1
8 2 1.8336406420584297 11.097753140586873 1.5825602242185426 5 -2 1
241 1 2.48658541800234 11.699325448383773 4.001789227373648 0 0 0
243 2 3.353941190619927 11.50545496713539 3.583015327221222 0 0 0
42 2 1.0397628590900716 11.495519601913022 3.6278204822555002 0 0 -1
7 1 1.9559224084940363 10.192811381568673 1.2654885151284472 5 -2 1
242 2 2.5823664747104327 12.402991978384172 4.733125669744505 0 0 0
9 2 2.8141092496054756 10.25382403506043 0.8016041373618643 5 -2 1
215 2 6.1358282635712085 8.915474667345597 4.449981065858107 4 2 -2
60 2 8.135552136476475 9.11071302588941 3.419873711963208 2 2 1
562 1 5.206210816624096 11.047902306787163 2.6675001305446338 1 0 -2
191 2 5.779418159938303 9.775860964222469 1.2867842210866682 -1 -1 0
563 2 5.275712365767206 10.489049554528833 3.4752768710381923 1 0 -2
564 2 6.032220504223848 11.592981096339436 2.6534587054164707 1 0 -2
149 2 8.155420974134296 11.866986789174241 3.1164800078489647 6 -4 0
148 1 7.456232731452188 12.452106480408379 2.8214536403243273 6 -4 0
214 1 5.370803442197174 9.47866145726297 4.754663803000831 4 2 -2
150 2 7.691198707055134 13.0409448197327 2.1207268321868837 6 -4 0
349 1 1.9168883388067401 13.27762607149583 1.092660713862116 3 3 -1
351 2 1.7278880231727065 14.220962567355853 1.258253563895668 3 3 -1
452 2 1.3590881609939378 15.774833275920177 2.7944622665171814 0 0 2
451 1 1.2018404582895261 15.727553478719019 1.8361475439766957 0 0 2
523 1 4.600332438719227 14.30255481155633 2.827074250509055 -3 6 1
544 1 1.5683380015364878 15.785223290103936 4.566132776189984 2 0 3
525 2 3.864144560147974 14.090371225007896 2.274139828326398 -3 6 1
546 2 2.0659846806649185 16.65488875322859 4.789874632128609 2 0 3
350 2 2.7672100541414495 13.18546587340683 0.6036691219297367 3 3 -1
524 2 4.6912422269551115 13.612956419798822 3.509688840257488 -3 6 1
161 2 8.399851293576438 16.507355570980113 1.4131048870039664 0 1 2
247 1 5.869823904523473 16.53557258214246 3.377063536941387 -2 -7 -1
249 2 6.757627909971336 16.405045400296093 3.0503935811727696 -2 -7 -1
248 2 5.324290872212446 15.726144637133249 3.1704045412555666 -2 -7 -1
117 2 6.934985295332216 13.123427228418278 4.143324386857026 -3 -1 3
499 1 8.58330032243075 16.03136391664187 3.345987833231096 0 -1 -2
160 1 8.016297331650723 16.22976346923229 0.5552972113939462 0 1 2
162 2 7.096271522328677 16.621915376615465 0.518156219342913 0 1 2
77 2 4.142885231774014 0.5331832262830685 8.55752846159428 -5 1 1
55 1 2.808934430618397 0.8351539014352329 5.168454898485314 1 2 -1
56 2 3.7897785928027874 0.9427563047394255 5.371971648115503 1 2 -1
99 2 1.9436595547542626 1.3481695328889343 6.620788450566112 4 3 -1
97 1 1.6441019977497633 1.5682046910906824 7.52744013497187 4 3 -1
98 2 1.2745840283560437 2.4599097527526848 7.289326695558835 4 3 -1
556 1 4.158346085705063 3.767472842313508 7.447950233756017 -3 1 0
558 2 4.013316936356192 2.8442637058909157 7.763981011328522 -3 1 0
78 2 5.597226682384915 0.9764443010408471 8.998560045466617 -5 1 1
483 2 6.160604601674226 2.011360324422982 4.923765357960459 1 -1 2
76 1 4.83242947818196 1.1612339615888863 8.3654110079312 -5 1 1
447 2 5.51215369389757 0.6734288297334804 6.597540809538908 1 1 1
482 2 7.442151962718003 2.7401925529176636 5.073244850621976 1 -1 2
445 1 5.525073263595304 0.7763401633921121 5.6041672062650365 1 1 1
557 2 4.682067386541727 4.183797697971045 8.08980130917257 -3 1 0
471 2 5.776513944941807 3.9200012553168113 5.232136601731259 2 0 -2
224 2 3.907442615320755 6.599014436708908 5.190485886244873 2 0 -1
223 1 3.5311905219984547 7.493430511881115 5.0271006774495754 2 0 -1
450 2 2.84837815720786 5.208100331702659 8.211446301495021 2 -1 1
470 2 4.620927354992469 4.465473847303771 6.107952691579278 2 0 -2
213 2 0.5975653143611723 6.947534079333788 5.95922802883175 -1 -2 0
448 1 2.5439209359368413 6.059968263322952 8.56359589316838 2 -1 1
212 2 1.883778583574165 7.767459237736613 6.103522952465223 -1 -2 0
449 2 3.2477035063583823 6.676777885501203 8.36613075047503 2 -1 1
211 1 0.9734969481040388 7.7482359796677605 6.392350768501952 -1 -2 0
106 1 4.451989228499592 8.116582624217443 8.09111757394602 -2 -3 -1
570 2 1.2169528523256237 8.223787939904762 8.118788354073732 1 -2 -2
107 2 4.062346359133712 8.648516846271908 7.410375748238967 -2 -3 -1
568 1 0.9756082348394484 8.662271489422862 8.974706459949946 1 -2 -2
300 2 0.4718133003747388 6.39868944326862 8.47844492192503 0 1 -1
469 1 5.083710968296226 4.748121779573574 5.304599334418083 2 0 -2
183 2 6.176940243818456 5.521548627641589 8.222117919174984 -2 -2 -2
108 2 5.206217459691302 7.700600811903104 7.629856755054517 -2 -3 -1
342 2 7.357924850089171 6.722415366914841 6.4948456061406326 3 -2 -3
340 1 6.418925792200711 6.699970805460731 6.727149553451933 3 -2 -3
341 2 5.991790015791334 6.041151778004231 6.084425961584485 3 -2 -3
395 2 8.895728651733663 7.366718160430982 8.848145682060235 0 1 3
181 1 5.830052137636785 5.144932669841546 9.015533868003965 -2 -2 -2
311 2 0.799751297330233 10.41150092028342 8.544611887024471 3 1 4
216 2 4.6174287154824505 8.850906296309002 4.83315750140151 4 2 -2
398 2 1.3106099527610275 12.928486236578332 8.167250211542717 5 3 1
494 2 2.718967711416146 10.633519369933902 5.489913548308084 2 0 1
493 1 2.8784295486716966 10.390475502937765 6.409908236462871 2 0 1
495 2 3.3108371788376503 11.156131569421088 6.872062561714731 2 0 1
406 1 4.295643564799495 12.06376859146186 8.38475829184499 4 4 -3
310 1 0.5914247263350576 11.3681933941735 8.709997937061672 3 1 4
113 2 8.053971362137153 10.880958454429111 6.638789961437681 -7 0 -1
227 2 7.629773890477349 9.145520556182582 8.107442821586972 -5 -1 1
203 2 5.9149962334740405 10.157435121168273 6.327975855840322 0 0 -2
204 2 6.036608618169227 10.924323858766941 7.6556053989937265 0 0 -2
202 1 6.520429982622145 10.613383782285448 6.938581703601695 0 0 -2
116 2 6.7155920940493115 12.551293312085471 5.623152291499447 -3 -1 3
226 1 7.672666426644097 8.866247880797632 9.05179718503432 -5 -1 1
172 1 8.100866590879232 12.362023709494707 9.10269670264985 3 0 -1
402 2 4.216985518056933 15.512044360192379 9.10251756823544 0 2 -1
317 2 4.30821322993717 14.922000352524519 5.902246130049569 2 1 1
407 2 4.421341091030731 13.103561952398314 8.444776035852874 4 4 -3
142 1 2.9381241058314234 13.92495480466477 5.537582849417489 1 0 0
545 2 0.6769970539374991 15.873956336260914 5.067360443435726 2 0 3
459 2 0.8950514179832618 17.149244480687685 7.937762982545054 0 -2 1
399 2 1.2772724436300686 14.516884803852259 8.001142091223258 5 3 1
143 2 2.3803427034101428 14.59702394240777 5.071538667938227 1 0 0
144 2 2.538839867229862 13.820351563901722 6.511089696266767 1 0 0
457 1 0.8913225853844546 16.288386283185606 8.480647151768135 0 -2 1
397 1 1.8154003998779975 13.72047996843082 7.945159341254314 5 3 1
115 1 6.7447520606004545 13.342185753522424 5.073644469191749 -3 -1 3
446 2 5.5732709444046975 17.148108964136426 5.207990489767468 1 0 1
432 2 8.41552900274142 13.65971859551224 5.755215998533607 2 2 0
318 2 5.731720710616348 14.735683002456474 5.530914970654511 2 1 1
400 1 4.851414951188725 14.84638947673706 8.672202651008854 0 2 -1
401 2 5.080312561173751 15.012642911496473 7.723312290736044 0 2 -1
316 1 5.1778787005680496 15.341632729640681 6.031523144732106 2 1 1
146 2 2.8637133310787455 2.9442183869393355 10.57636481615077 -1 -1 1
145 1 1.9527287488266991 2.771709397691946 10.220298091108372 -1 -1 1
164 2 1.2496673141301502 1.4020616654398683 11.482903327799574 0 0 -1
529 1 4.313662141582 3.468252026729291 11.11198177299881 2 -5 0
326 2 3.0446509438584033 0.6028910897893329 13.212881632142283 0 0 2
464 2 2.1857004417787573 3.698108932178531 13.244049774197563 2 1 2
503 2 0.5546222471516041 3.9497187148588044 10.425701518078338 3 1 2
325 1 3.56651234946616 0.15778210405748336 12.513318844413812 0 0 2
147 2 1.9906939076806338 2.2534756351386345 9.420346183356289 -1 -1 1
327 2 4.5060743430195656 0.25644217543578146 12.726286857823675 0 0 2
530 2 4.279005963232098 4.399252099066638 10.958749464257394 2 -5 0
163 1 0.5092622961559935 0.8808137331058407 11.977606215462941 0 0 -1
531 2 5.166771566013824 3.350401502365456 11.570085595532571 2 -5 0
382 1 6.898673608982345 1.0435278185648702 10.194307399439829 -1 3 -4
63 2 7.5167624954336105 2.626786398420544 10.099713480797828 3 -1 -1
61 1 7.903857309650095 3.523573658836248 10.059463826583329 3 -1 -1
383 2 6.56326504415765 0.8100121350800074 11.009916903068412 -1 3 -4
271 1 6.222849782261108 0.3953678575995866 12.87246288478659 4 2 2
273 2 6.4918288264349915 1.3434213029742375 12.844388801388163 4 2 2
302 2 7.351384195278558 3.504009416057757 12.735211517533227 2 -4 -2
384 2 7.524825584809457 0.3557013687215377 9.952434687320267 -1 3 -4
62 2 8.254828406489795 3.7285148135921875 10.924326916662643 3 -1 -1
301 1 6.434277119334294 3.165993578231314 12.673777725418676 2 -4 -2
465 2 0.9938484925094004 4.546683543999754 12.667954570598427 2 1 2
463 1 1.6966467742520868 4.542212563419894 13.375645047199429 2 1 2
12 2 2.6567468806079044 5.896116236527018 10.279069329566479 4 -1 2
10 1 3.019502497704196 6.053487033099206 11.239784645879253 4 -1 2
11 2 2.554231552189876 5.632270580398484 11.957355424074565 4 -1 2
293 2 2.8649870261467747 7.868388100313714 10.995136961239316 1 1 -5
292 1 3.028866665394689 8.754512049014483 10.652376754308287 1 1 -5
380 2 1.7494246654503958 7.228037563858117 13.346510436585206 2 1 -3
569 2 1.863784990685021 8.6542490092157 9.45722455137306 1 -2 -2
65 2 4.062811967284572 7.258604189838945 13.3571842685123 -2 3 -2
294 2 3.7270625739036736 8.560115371816313 10.004595895276175 1 1 -5
66 2 5.259444293115621 7.503548964772708 12.39389142228012 -2 3 -2
538 1 6.2959655373508925 6.979454980334808 10.907185160263813 -3 -3 2
539 2 6.073422647177793 6.289467804667044 10.2256716973631 -3 -3 2
321 2 8.040866067983776 6.542135046478033 11.427244948181842 5 1 -2
540 2 6.5376797164650995 7.707495448968454 10.31513830062751 -3 -3 2
64 1 4.975683934086267 7.55803217137928 13.360882743759852 -2 3 -2
182 2 6.51673160376367 4.497600625423886 9.412167303372804 -2 -2 -2
408 2 4.254039690217518 11.78249823256632 9.304718834616867 4 4 -3
187 1 4.286065624848678 11.156303464510115 10.943965464581524 -3 3 -1
266 2 3.0598649284403643 12.45124171559042 11.01513402199418 -1 -1 -1
414 2 1.1699216299894997 10.840697292215857 12.367751649711304 0 -3 -1
188 2 3.7293652210027672 10.371099914400732 11.096122824901107 -3 3 -1
412 1 0.5567177489107936 10.533742024485413 11.658284927824901 0 -3 -1
413 2 0.9132230973499609 10.772920178685505 10.79088588699992 0 -3 -1
189 2 5.2469742412074565 10.77565642551554 10.80226671941107 -3 3 -1
315 2 7.231318078024419 10.938930600775818 11.77014645669844 -2 -3 0
313 1 6.952205444176297 10.702158870465018 10.869072923910052 -2 -3 0
314 2 7.3315116065636765 11.37203559014315 10.299091868278781 -2 -3 0
120 2 6.794644319223825 12.004832090287797 13.386561587082953 0 1 0
228 2 7.4601573305596265 9.649137853255855 9.506703626683372 -5 -1 1
378 2 0.5251021995391084 16.36427712998997 12.017044116347837 2 -1 -2
265 1 2.5563122770411235 13.264217215644464 10.892344636473762 -1 -1 -1
267 2 2.8220793568234406 13.414092825615972 9.98158294827176 -1 -1 -1
467 2 3.099978228393114 16.857605325040478 10.628198730770702 -2 -1 -1
197 2 3.5815293808296054 14.311309375857432 12.01162755399006 1 3 1
196 1 4.113386380754026 14.7756903401032 12.719288383961532 1 3 1
198 2 3.9107948146599236 15.760102972422937 12.652215269359665 1 3 1
377 2 1.5239897447174287 15.179584228428684 11.759686345820334 2 -1 -2
376 1 0.6025007102115342 15.386423295042265 12.053043847391674 2 -1 -2
466 1 3.132078201925023 16.32329288123688 9.775434050323144 -2 -1 -1
468 2 2.2544235715128895 16.447928133406304 9.325384379741138 -2 -1 -1
309 2 0.5823231464599345 13.328980166087575 10.413820963277317 2 -1 1
272 2 6.9637953337584255 17.051613056393247 13.004914667104861 4 1 2
174 2 7.763018318279888 13.158293058889072 9.464653517763338 3 0 -1
515 2 7.655367817487986 14.889565349887938 13.266667976119162 -2 -1 1
346 1 6.67715162120644 13.486092326100813 12.828081665945254 4 0 3
348 2 6.753510149555511 13.775726995898756 11.842954668637836 4 0 3
347 2 5.717479982191139 13.77491039322364 12.985483765320355 4 0 3
343 1 6.914691793292075 14.412711897483469 10.254326301110305 -2 1 1
345 2 7.452715735413838 15.200407275867448 10.201209832706105 -2 1 1
514 1 8.047928447904233 15.79822972001566 13.279395791109366 -2 -1 1
344 2 6.160929079557407 14.593465974108101 9.57189813883306 -2 1 1
139 1 8.74299634420914 16.592200770613978 9.357731106594956 -1 2 -2
393 2 1.9023554504045515 2.159166871735835 17.667293653682165 2 2 -1
90 2 3.7675659676181925 2.72183113625533 14.434763385856058 0 2 -1
88 1 2.931828517052487 2.2626540512115962 14.26524194606805 0 2 -1
89 2 2.364965741092035 2.335162054002005 15.027685503824365 0 2 -1
391 1 2.113915007211728 2.686285204829696 16.860412841752368 2 2 -1
392 2 2.9328806476539304 3.188904128164817 17.08969516493528 2 2 -1
305 2 1.156664920612855 4.2213026650075935 16.563948624632236 -2 -2 -1
168 2 0.4949341190288043 1.3382841152791982 13.966559070178542 0 0 -1
111 2 8.539896252195199 3.474046674317579 16.1498914749161 -3 -1 2
27 2 6.831052915686302 2.945482375133435 17.704855782225884 -1 -1 -1
25 1 7.040978317668134 2.6810405153095807 16.771193992939104 -1 -1 -1
26 2 6.750527337848215 1.7653949683101275 16.83515709785381 -1 -1 -1
103 1 5.713498152734005 0.248302706537528 17.326791279061368 1 -1 2
303 2 6.095166410531673 3.4476038636141633 13.578617674863056 2 -4 -2
67 1 5.250767140109387 3.861701566770095 15.035664652510084 -2 -1 -1
68 2 5.8600958174965525 3.4688705031064813 15.741233846473898 -2 -1 -1
359 2 1.9206067618985152 6.061995183653851 16.701146746888096 0 1 -1
304 1 0.6740670249530026 5.045753104130662 16.319893221732574 -2 -2 -1
379 1 2.363905242781829 7.73238216179209 13.835158866057386 2 1 -3
381 2 2.2800804947424758 7.3605779059395715 14.713524716714458 2 1 -3
358 1 2.571107628364483 6.806517187160448 16.66780257411258 0 1 -1
158 2 3.2667738158647874 8.548425322731095 16.660004346937562 -1 1 -2
360 2 3.4421174410407818 6.416974354201383 16.93131962786211 0 1 -1
306 2 0.5735316104853975 5.011853757777219 15.339723079745056 -2 -2 -1
110 2 8.928346819924398 4.453347323066103 15.029311463941093 -3 -1 2
69 2 5.638032396588932 4.788577656424783 14.980427030219762 -2 -1 -1
49 1 5.358029105589792 6.1353980897619 17.224170832916105 3 2 -2
45 2 6.070356446576741 6.622986249194084 14.202751786471541 0 0 -1
44 2 7.50355078238765 6.645546370435552 14.834350752744822 0 0 -1
43 1 6.666828550123026 6.121077420814445 14.796521286417894 0 0 -1
50 2 5.787120905611845 6.283955729300426 16.41661336665651 3 2 -2
157 1 3.7123311980517664 9.370947011103716 16.557324141294323 -1 1 -2
159 2 3.9201061584288044 9.527456287251713 15.574188130109226 -1 1 -2
156 2 1.20676435000081 10.66835064067428 15.282769602851278 0 1 0
155 2 0.95227568589151 10.289890570636555 16.826870097567824 0 1 0
52 1 2.026397321456114 11.36857095689239 13.75568666877244 -1 -2 0
54 2 2.1835023042605974 12.28322859284845 13.961017213622672 -1 -2 0
53 2 2.873511507549938 10.914573609697593 13.62486712559925 -1 -2 0
259 1 4.3489674373066975 9.990020999948257 13.979935401452583 2 0 0
154 1 0.5589023173494432 10.362587060688455 15.9044068576617 0 1 0
261 2 4.475322333442971 9.000307011602743 13.785355034338732 2 0 0
190 1 6.097540222885595 9.42933671257975 17.71699962292534 -1 -1 -1
438 2 7.565800452653421 12.950250595421355 16.92657139942226 3 0 -2
192 2 5.247605655543613 9.253206981141078 17.2328856225103 -1 -1 -1
230 2 4.764201120770356 12.74152547043149 16.456091166527653 0 0 -5
119 2 7.757638220098484 10.8606792081112 13.9533606048237 0 1 0
118 1 6.806009359059623 11.097639781657485 13.804604040955276 0 1 0
15 2 7.5997113336516104 9.000806970094377 16.971431245974077 1 3 0
210 2 6.433593851733857 11.10566889483752 17.010058167176513 1 2 1
209 2 6.617534631197932 11.342801280830091 15.47204027183803 1 2 1
260 2 5.299192060130774 10.381411693582592 13.902417343756865 2 0 0
208 1 6.534402489730711 11.838196266554517 16.3334804410679 1 2 1
13 1 8.463192793686277 9.143808709202192 16.51459821456325 1 3 0
231 2 3.3792014913349084 13.265183442735125 15.829027937607865 0 0 -5
388 1 2.264516603771378 13.933090253006394 14.702395447962557 2 0 0
297 2 0.9956076668991145 16.74261445270727 15.610683830812858 1 -2 -4
296 2 0.5572578886973251 15.811713033163484 16.745625651748462 1 -2 -4
5 2 0.5491368874604772 13.293869677669745 16.598896985267462 -2 0 4
389 2 1.8185806129618045 14.767016504235706 15.055850484253813 2 0 0
490 1 3.8046766318622973 15.665278678109896 17.30937404264234 1 -3 -2
491 2 2.945642324052126 15.84018126927307 16.874018374192246 1 -3 -2
229 1 3.9335132337158014 13.244127811997608 16.640521500310424 0 0 -5
492 2 4.036068209691629 14.78557930487069 16.91495384752697 1 -3 -2
295 1 1.2363209788763658 15.953769111711221 16.06002533573701 1 -2 -4
390 2 3.0164240742496022 14.318176957350717 14.120471861073733 2 0 0
329 2 8.927404099055844 14.415510786010586 15.833397641517326 4 -1 0
436 1 8.296875350868183 13.490073528253015 17.329908997314945 3 0 -2
104 2 5.019795276259134 16.821570552905857 17.02798341853033 1 -2 2
516 2 8.512384203168116 15.834585246978488 14.120814099658185 -2 -1 1
437 2 8.02540889258792 14.385522669819414 17.405566074997957 3 0 -2
374 2 10.195384465479172 1.452575687461197 3.0483500931843492 0 5 1
520 1 9.362086935456139 2.7097363096916287 1.9596193522009033 -2 1 -1
373 1 10.507812389053319 0.6234248077282887 3.4548209845512705 0 5 1
522 2 10.074849780702818 3.3514266830637154 2.0344595867348185 -2 1 -1
375 2 11.376527047510564 0.44753333906152903 2.958077001994047 0 5 1
442 1 12.808924777189144 0.2123433110488011 1.9121342769215988 -3 1 3
443 2 13.112626136368887 0.6559856795633926 1.0531601160933879 -3 1 3
96 2 10.056904558539747 1.6328776118190436 0.5682947326308875 1 0 3
420 2 14.350017211155851 1.0909903047405662 2.9553651406392416 1 4 -1
418 1 14.830807763848465 1.7369605796274759 3.556807916739039 1 4 -1
419 2 14.461212855980483 2.58456222543288 3.252705051981998 1 4 -1
535 1 15.935569360858166 4.021790352449033 0.9941881636450889 -1 -2 -1
365 2 16.634853600580623 2.0841371176845795 3.8211094232062295 3 -2 1
92 2 14.569628505348817 4.203312758220977 2.0608070433216255 2 1 2
91 1 13.88305464365894 4.152792413281179 2.742250077976196 2 1 2
364 1 17.52185490976276 2.4818794193585085 3.8035053184419616 3 -2 1
366 2 17.438607490210142 3.3701532211364147 3.41456783501015 3 -2 1
269 2 16.329363692702092 2.2406675394480744 0.6125226572449219 -3 2 4
411 2 10.69468542739432 4.938066627171185 3.7748415064826535 1 3 -1
527 2 12.651245571858599 7.432693681591679 1.1366720160945465 -4 1 0
28 1 11.33010247538253 4.534091595213899 2.102111654374129 -1 0 2
30 2 10.985092635237937 5.272842842136664 1.5820808782124733 -1 0 2
29 2 12.282138574926552 4.565770512277341 2.256371576296306 -1 0 2
409 1 10.275734862216744 5.2299753947802445 4.643649782290708 1 3 -1
3 2 12.869970438773755 8.51042999994686 3.311548846632272 0 2 4
517 1 9.604944828759994 5.903402850857544 0.5644062906347289 0 -3 -1
1 1 13.344597947653146 7.919475980409021 2.6467001320360923 0 2 4
93 2 14.248494591366383 4.658924206870774 3.5160319183353415 2 1 2
509 2 16.033180906961377 8.56984367415039 2.746940415815772 -2 0 2
2 2 13.882029325898847 8.525544653187062 2.15279787578372 0 2 4
508 1 16.45083634469884 8.64962273446439 3.608056825903416 -2 0 2
39 2 14.077378237073393 6.7121217259969805 3.860253714405295 -1 -1 -2
37 1 14.544940644428724 6.193999788971044 4.541312934424772 -1 -1 -2
441 2 16.304704685824227 5.8007930076258365 4.76355153647042 -2 -2 -1
537 2 16.615819011018953 4.705608544667625 1.2282935302415288 -1 -2 -1
368 2 15.592225790262745 8.751230800655415 0.5681857727343382 0 -4 4
18 2 10.975738624763487 10.151505131187454 1.2841392464835313 -2 3 3
238 1 11.612290303952344 11.064879032157988 3.3200892397874333 -2 -2 2
507 2 10.071765327952765 10.417608421896151 3.6739331580542083 -1 -3 4
239 2 12.377829563108868 10.770518798544877 3.854069143800037 -2 -2 2
240 2 11.538720090124933 12.015331136750543 3.6317706605692472 -2 -2 2
338 2 12.862760809288915 11.902296175279403 1.8643344247011595 1 -1 -1
505 1 9.068727911870914 10.51785729417888 3.7648717057474426 -1 -3 4
17 2 10.772095159133821 11.545013264676285 0.5441375358992785 -2 3 3
506 2 8.971322361447227 10.701257367917973 4.760046530146926 -1 -3 4
367 1 15.211004881144174 9.168791094458271 1.3652437185835593 0 -4 4
510 2 16.878335722900395 9.587666209166303 3.4829622607496216 -2 0 2
369 2 15.572788624563698 10.08753479462763 1.2579987109891815 0 -4 4
416 2 16.89687970393185 11.495559216843754 1.8634028966638951 -1 2 3
415 1 16.229761998293792 11.59913179495539 1.170297844292014 -1 2 3
41 2 16.85502262886519 11.849212868758428 4.092904829576618 -1 0 -1
339 2 14.44415087251058 12.101380477095063 1.62855511988346 1 -1 -1
337 1 13.587831194953843 12.532485827317966 1.5893677505353427 1 -1 -1
40 1 17.320833130833915 11.308681198538594 3.495756820961806 -1 0 -1
500 2 9.103105394958154 15.210530840932288 3.3457786759853128 0 -1 -2
501 2 9.20677124577353 16.748726294798654 3.4150243963591342 0 -1 -2
23 2 10.017152447332117 13.5655261671505 0.54155684191646 0 2 -1
559 1 10.716896611401161 13.63833240289101 3.5583909265968554 -3 1 3
560 2 11.456531835674728 14.271506231880856 3.71478715055708 -3 1 3
24 2 10.79874400707435 13.23749060865436 1.8944272785214131 0 2 -1
561 2 10.337005763779336 13.498279674943937 4.489057293678961 -3 1 3
22 1 10.87390652044325 13.24696005731929 0.9335831886912327 0 2 -1
403 1 12.943615116205837 15.063148926117176 4.511693350106066 -1 -4 -2
444 2 13.082911263694983 16.528671712677628 1.9622857275815278 -3 0 3
151 1 16.071036651558114 16.14374472643163 0.8442211561519696 0 0 3
472 1 13.871851537350633 15.01220884391044 2.0323785514483936 1 0 -1
474 2 13.585988023999295 14.10753448231046 1.9354943587715296 1 0 -1
473 2 13.627542969856368 15.236120435988473 2.9465470935625375 1 0 -1
152 2 15.21222221113582 15.750226853196079 1.1334813012862621 0 0 3
153 2 15.864999816963145 17.042055704869135 0.5235658428727439 0 0 3
453 2 17.529048049281336 15.881606443386977 1.5831070941507785 -1 0 2
410 2 9.882855713686771 4.3979161401275295 4.963127273614507 1 3 -1
456 2 11.051178555628839 0.9798520875305476 4.961556916927912 3 1 -2
498 2 9.377438440967126 3.869081539436616 8.851486833590382 -3 -3 -1
496 1 10.070186098268795 4.15762711424818 8.214072945161446 -3 -3 -1
461 2 9.209462526158948 3.274709569485936 6.708654693619548 -1 0 -4
462 2 9.65717990077584 2.1945427717322175 5.753308526192041 -1 0 -4
454 1 10.92957618823123 1.2713254940340544 5.896022747506958 3 1 -2
455 2 11.772266575369423 1.7036565309363316 6.223976962071872 3 1 -2
207 2 12.548254688714406 2.645126869977084 8.059816913393886 -5 3 -3
206 2 12.569476568762756 3.9933960291567416 7.247701632765224 -5 3 -3
205 1 12.76363297480987 3.03252712026688 7.187700158273622 -5 3 -3
460 1 9.011124697102405 2.9381768458338264 5.80750001068192 -1 0 -4
237 2 14.26594649530832 1.021268211692405 5.05963820526898 1 0 -2
235 1 14.324466024051748 0.3144424378575781 5.737343579015732 1 0 -2
385 1 17.331355326914892 3.751530920042992 7.0735768889233785 -2 0 1
386 2 17.19086242356921 4.100619595891253 6.15870366892603 -2 0 1
236 2 14.549564730863993 0.7091240562515116 6.560323522346448 1 0 -2
423 2 15.985083156899538 2.5449529090178356 7.61560624120223 -4 2 -1
421 1 15.240572388276759 2.0139739961920293 7.951228416147522 -4 2 -1
422 2 14.418781006158303 2.403826399468367 7.723383186586108 -4 2 -1
497 2 10.069377262886 5.133468837328875 8.29798100163395 -3 -3 -1
433 1 12.339254055948016 6.676365384149103 8.68937230377484 -1 -2 2
331 1 12.581490065233568 5.702009462012353 6.3008146800336124 1 -2 -1
282 2 9.771594884771305 7.671626179302988 6.188207689956327 -1 -2 0
333 2 11.71523023358145 5.673027353890421 5.821234781114359 1 -2 -1
281 2 9.580392425144042 6.526470143156395 5.2263655316329585 -1 -2 0
332 2 12.34088081234418 6.0725578791651476 7.181300277764114 1 -2 -1
394 1 9.63898955494191 6.761417828011257 8.86010590586887 0 1 3
280 1 9.049241077324874 7.201380607137604 5.707424952796152 -1 -2 0
435 2 11.44457977314124 6.997442784228132 8.83391704343985 -1 -2 2
298 1 16.922877324913493 5.944250171124784 8.687284188918992 -1 1 -1
439 1 17.24078760322784 5.498249259822419 4.9479683509357475 -2 -2 -1
299 2 16.189752852756058 6.641157364060466 8.630826999629862 -1 1 -1
387 2 17.13156635358125 4.583460625027016 7.565720099954 -2 0 1
84 2 15.788850326390222 8.651850121088616 5.12761899759343 3 -2 -2
357 2 13.834352051673124 7.347665128167028 8.171758979003657 1 2 2
38 2 13.933515843118682 6.141758833045118 5.274078249651609 -1 -1 -2
355 1 14.758343404342334 7.661567284742483 8.330797349606854 1 2 2
356 2 15.125217537297 8.151885355302742 7.522469574912454 1 2 2
112 1 9.044701514685585 10.939489767318912 6.299639410020462 -7 0 -1
134 2 11.081235354413234 8.992302152358041 7.88737354778948 -1 -3 0
555 2 12.112752187132148 12.49735497001721 8.284372918270572 -1 1 1
133 1 10.868376280092251 9.019104664388749 6.936011634582613 -1 -3 0
363 2 12.115269996881644 9.450508134588794 5.700965013696877 1 0 -1
135 2 10.247084898252721 9.784617623984973 6.771974467524747 -1 -3 0
114 2 9.183900158936737 11.905664065553266 6.449232291453355 -7 0 -1
361 1 12.871786408246981 9.374383689020872 5.0738635182258855 1 0 -1
553 1 12.773949515861757 12.534899808976967 7.585580763712648 -1 1 1
173 2 9.023943899699836 12.297565138537655 9.085592967195462 3 0 -1
222 2 14.476767864849657 12.707790700118537 4.952780069353394 2 3 -3
554 2 13.550838506710916 12.169899343825222 8.064617382664773 -1 1 1
312 2 16.877636114902106 11.469080839464732 8.699414017057663 2 1 4
220 1 13.504783294595693 12.592303405340166 4.978898683247746 2 3 -3
82 1 15.571811377835244 8.962336923758153 6.010071683105125 3 -2 -2
83 2 16.46230735724849 9.189837137056983 6.30462745576494 3 -2 -2
362 2 13.672334351999956 9.218722706048773 5.600888391451786 1 0 -1
221 2 13.326434630719646 12.373963119960418 5.9295276967051604 2 3 -3
278 2 12.749520502183378 14.322040805191794 8.113228473886187 -3 3 0
405 2 13.186298518101074 15.744947782022065 5.199395869731543 -1 -4 -2
404 2 13.187659669091701 14.171075548548098 4.832382193958146 -1 -4 -2
279 2 12.99146272569172 15.600755886763789 8.949823467927613 -3 3 0
425 2 11.278802381000325 15.646892962284989 7.508652285715447 0 -2 0
140 2 9.08421885901609 16.37469470655652 8.474317198528906 -1 2 -2
277 1 13.099999195030739 15.243756695519522 8.079471534053836 -3 3 0
426 2 10.511318136355762 16.77209882462265 6.6282052361377515 0 -2 0
430 1 9.383675262768541 13.67940681705336 5.915007785551469 2 2 0
431 2 9.523981074205933 14.468284999936316 6.3863830294793 2 2 0
424 1 10.418424172321057 15.991786678962564 7.237670857501656 0 -2 0
291 2 16.202345885139493 14.13951157599095 5.165705931966047 3 0 2
201 2 14.756888036640596 14.745422939982136 7.984807635886292 0 -2 0
199 1 15.712723163374967 14.54110656974768 7.866368587169941 0 -2 0
552 2 16.42516150585886 15.690666767293669 6.613476575755357 -1 -3 -1
551 2 15.693728840212339 16.601910888646163 5.52851726982161 -1 -3 -1
550 1 16.479696575564148 16.017843883233805 5.6805839962973135 -1 -3 -1
290 2 16.16572247842228 13.480090223906103 6.468037599292436 3 0 2
289 1 16.179457582369032 13.262172539526722 5.509051681623257 3 0 2
200 2 16.060163520930455 14.225641209894672 8.732985307707038 0 -2 0