LAMMPS data file via write_data, version 8 Apr 2021, timestep = 1769000

1008 atoms
2 atom types

-0.12866247356234367 20.801189130795063 xlo xhi
-0.12866247356234367 20.801189130795063 ylo yhi
-0.12866247356234367 20.801189130795063 zlo zhi
0 0 0 xy xz yz

Masses

1 16
2 2

Atoms # atomic

338 2 13.768941279646194 8.222806924115044 9.935337032511406 -3 0 0
634 1 18.357331065615966 7.161853239080319 0.40095376313292824 -1 0 2
563 2 17.77050537634999 3.616599863899015 8.792892966506384 -2 2 -1
130 1 7.703533817337324 1.0244767913810084 7.419135388853972 1 1 -2
347 2 2.3261636947118016 5.238651862761659 4.757465483981194 -2 2 1
318 2 8.839212910658297 1.195256353225389 3.901587693283665 0 1 1
339 2 14.669101272751607 9.473604436187424 10.233292287165924 -3 0 0
211 1 6.210903943347346 1.4075730724999094 9.619258338034102 0 1 -2
547 1 3.448320777431806 9.847701593283938 5.3438151666159674 -2 2 -1
841 1 5.539898119648008 4.44924022231473 6.773927176061543 -1 0 -2
742 1 6.808001832998352 5.754885418840013 2.912000119840825 0 -1 -2
811 1 6.725026830610282 1.2591892407297187 1.8774037547039768 1 -2 3
618 2 6.738776552264913 3.7491272446965014 5.949650471464238 0 -1 2
603 2 15.202200497999362 7.268940112578398 8.282027877707316 4 -2 1
290 2 10.51204317995942 4.21677540464618 5.427174909475231 2 2 2
151 1 3.258947343762476 3.0747774554780545 6.618567700195804 3 1 2
15 2 11.962205450648321 5.367670406606136 8.51135560139262 3 0 4
796 1 10.547857768515595 3.429146396964517 0.3103498514262806 0 0 0
844 1 12.859698619152748 5.643068230821854 5.0875628412700955 0 0 1
827 2 4.803004507178023 2.0081282454964207 3.9224017097902517 1 -1 1
147 2 1.3561088679457338 8.576329764863202 2.925593249860528 4 0 1
131 2 7.439160465869253 1.5518615637206563 6.684064504756092 1 1 -2
837 2 4.190807720842005 4.217512324594469 2.065829861338867 1 -1 0
727 1 12.759977343410064 3.5678502982749314 1.9963959703067713 0 -1 2
282 2 12.995223412841849 2.4305689368577608 3.2777798383213512 1 3 0
358 1 8.467256663073096 4.783011172672331 8.857340600566806 -1 2 0
862 1 16.884718880582895 -0.1094339361141468 1.63577704767341 0 1 1
74 2 17.95509871611288 1.0033942674325296 5.144507999015122 3 -1 -1
686 2 19.222333012818527 2.1402148814442685 3.8643630480029643 -3 -1 -1
350 2 15.457296094673943 4.538400634222141 0.7959958278960549 1 1 -1
289 1 9.97284982193296 4.284697964093439 6.276515661604659 2 2 2
626 2 10.238169619007984 3.4672943571389285 3.625526812056389 2 1 0
96 2 2.739891345073531 4.992587812556457 7.427150482550657 4 -1 -2
740 2 18.61333514291128 6.181602339972769 5.374115267626042 -1 0 1
938 2 19.0358042973119 3.643453246903371 -0.10549994879116852 0 2 1
854 2 5.239952333741443 7.110225688599248 5.6665544931292615 -1 -1 1
219 2 11.613784239521884 0.5447924034649052 1.1903531332484785 -3 3 -1
888 2 19.742306917348827 5.384231635345726 2.6202906022782435 -2 -2 -1
382 1 0.13777227218306903 6.540542237623268 7.888850678139201 1 -1 0
425 2 3.985498061478738 6.254889795163 8.461088048582171 0 0 2
368 2 6.415573078278876 6.940806543260744 8.445173982695882 1 2 -1
119 2 13.380228205819504 9.201839850316693 6.024319914314845 -2 0 -1
362 2 1.8088023968092313 2.0078536471329724 2.206262629687772 1 1 0
741 2 17.334114528474203 6.07189256028084 4.440762648336687 -1 0 1
390 2 7.004117349663631 6.973342108601796 6.2721924290664335 1 2 0
14 2 11.065640123873557 6.119750452618968 9.703076048704895 3 0 3
31 1 0.7305057108925881 7.741855593701511 4.28131984899054 -1 2 -1
306 2 8.380064215718612 7.905461410609304 4.466187651951181 -1 -2 0
561 2 0.8774577914335742 3.9857276158304598 1.3971620862417686 3 1 2
450 2 13.849948832614055 4.360795237400022 7.912849774148898 -2 0 1
426 2 4.430697236296852 7.5134907652778145 9.244467499822264 0 0 2
838 1 0.9884280372910133 3.8676860291585835 4.544044117014908 5 1 1
449 2 13.265849366186188 5.310633377765892 6.695546432169269 -2 0 1
41 2 11.185064378030242 7.92776476829653 10.252828122419574 -1 0 1
636 2 17.499510875733634 7.429935559148296 0.6714274921389073 -1 0 2
982 1 16.44360164328402 4.738329616087325 3.9901594425669242 2 3 0
351 2 14.86559395590413 5.797820636884795 1.2413649517235512 1 1 0
813 2 7.45216729181415 0.6772644305143956 2.29379006830446 1 -2 3
212 2 6.7831082831254585 1.1534411571733427 8.861196700982772 0 1 -2
431 2 7.831041261099574 3.754920196201281 0.4178847857160188 -3 -1 1
218 2 10.73053454397206 1.8010283857684877 0.856631894773978 -3 3 -1
280 1 13.261821231629407 1.6798969185279213 3.8447461067751525 1 3 0
9 2 10.367990466189855 5.611723772567889 2.937249919894618 0 0 1
293 2 11.7121664453801 7.667109249143597 3.029196893488451 3 -3 3
743 2 6.3319961066906645 4.93410660419862 2.92307067575849 0 -1 -2
627 2 11.668399237596338 4.062418703527633 3.3110886508397344 2 1 0
826 1 4.242279683774338 1.4537020561765899 4.448253336296831 1 -1 1
658 1 1.5759084444206217 4.894039466905662 0.33861420068032244 1 1 1
487 1 19.513606446531895 10.151770880540406 6.608939735906335 2 -3 0
291 2 10.462831564133534 3.76358613715428 6.983416487856621 2 2 2
601 1 14.753504492693242 6.931011106811686 9.103920258066108 4 -2 1
367 1 7.266385193273063 7.072676219478993 8.011993692563683 1 2 -1
384 2 20.69793985718367 6.060659508239537 7.126809360874767 0 -1 0
571 1 1.0314009450533208 1.0273218060223956 7.934800265541541 -1 -1 2
73 1 17.13467582265521 1.0322817682348968 5.619514970310163 3 -1 -1
285 2 8.167845337972683 9.90934160368073 8.562682588107833 -2 0 -2
144 2 3.8132615534912273 3.402814596160034 10.092589090881486 0 -1 -2
964 1 2.698036368445223 7.550992998825999 0.3517721248386965 2 1 4
886 1 20.075397153377324 6.211593387620191 2.2720941001188972 -2 -2 -1
822 2 0.021745915318499676 9.411635692135935 6.800676716863868 -1 -2 0
359 2 8.215282976959866 3.949680134231168 8.408681841087624 -1 2 0
369 2 7.901113909650144 6.377560090678223 8.265760553140225 1 2 -1
671 2 12.054862079554471 0.9294066140127581 5.245998235133827 -1 -3 0
660 2 2.4534785799771752 4.922068865443653 0.8030348565283131 1 1 1
828 2 3.4247411702450434 1.4666080592159987 3.9124032322776574 1 -1 1
905 2 19.513743513200666 0.20297783113504053 2.838673679213193 -1 1 -1
927 2 0.100824801360272 10.142394767576395 9.467732349917153 -3 3 0
349 1 15.209321741310726 4.932873675810582 1.624100793540727 1 1 -1
843 2 4.62993482129097 4.085050345964429 6.723274299507515 -1 0 -2
855 2 4.257445623931477 7.07493379445267 6.826905186483048 -1 -1 1
120 2 14.650496449516117 9.349496034836697 5.063475970313372 -2 0 -1
574 1 5.395834897248504 8.034779401034223 2.431776053419611 -1 -1 1
842 2 5.734403061773851 4.2692343720958075 7.716429249677496 -1 0 -2
696 2 18.73485947748045 7.751839814902141 9.420330261619279 0 -1 1
840 2 0.7590729049415783 3.7109280546641052 3.6207183995791925 5 1 1
45 2 10.69425172606766 1.8428359921448685 7.127993222451619 1 0 0
250 1 0.8845353362337542 1.1118575664381536 5.340557794268146 4 1 2
58 1 18.679605121539602 3.6066588462088665 3.106217899290772 1 1 0
294 2 12.867576698035894 8.548713735115534 3.743112778423892 3 -3 3
575 2 4.441585682970959 7.962936024234953 2.4487329951272336 -1 -1 1
388 1 6.732475815807176 7.102588624107086 5.322919125688115 1 2 0
853 1 4.271055317270613 7.279351689939279 5.887580918426657 -1 -1 1
432 2 7.195646651965057 2.3064376628402954 0.7181635706085746 -3 -1 1
550 1 19.888914373430165 5.043480750586525 6.026863525627037 -4 0 1
94 1 2.4664589336374676 5.397582725842771 8.242112863041855 4 -1 -2
939 2 18.98031412195838 1.9781460892579685 0.027468555509110426 0 2 1
552 2 19.36325095204075 4.407092624327993 6.469683520543259 -4 0 1
397 1 18.421124326114327 9.150575219321068 4.4739576728935395 3 0 2
744 2 6.288151381194167 6.519329222356408 2.7175417298550157 0 -1 -2
562 1 18.457070273904524 4.15623740168841 8.358896880244133 -2 2 -1
334 1 13.030715920111987 0.3606154079595485 8.112349884498492 1 3 -1
820 1 0.9098416984024285 8.987806002664092 6.98090620133175 -1 -2 0
684 2 8.074330949727818 5.620517387735532 1.6704227880278986 -1 2 -1
348 2 3.4382391702373356 6.433345947353954 5.012837839334773 -2 2 1
551 2 20.47640397306262 4.482730681590248 5.427549146006271 -4 0 1
672 2 10.570210734692308 1.1645177372649997 5.026107702579054 -1 -3 0
666 2 5.992630526680559 3.0508967083316842 9.810737784019087 1 -1 0
564 2 18.284202376661497 5.0615124523603745 8.721786260196362 -2 2 -1
454 1 16.707535091345036 2.5313727824628174 9.84917538466772 1 0 2
789 2 10.37263071639057 6.057812383974506 6.455921012190929 0 1 -3
513 2 18.531994665341067 9.515519488479637 7.681418973239017 2 3 0
13 1 11.09405428686579 5.3243653635715225 9.09337923658737 3 0 3
59 2 17.818533076646908 3.945607286454083 3.3899288228175735 1 1 0
625 1 10.81081961070112 4.26903370435027 3.7575542836628606 2 1 0
95 2 1.5283278092525747 5.659437870051726 8.08382370002081 4 -1 -2
729 2 13.508823348445906 4.151696934260523 1.737610992009274 0 -1 2
30 2 10.104803965231458 8.815977485013008 8.712499980596183 -1 0 1
952 1 14.458306451981132 2.88740210406293 8.253759053289512 -1 2 1
698 2 6.324022605290943 3.5392456125289846 3.934141740265025 0 1 0
549 2 3.809037992738996 8.963628608561606 5.414464877551414 -2 2 -1
787 1 10.851460592056615 6.885714483377549 6.32056908841399 0 1 -3
894 2 20.640590227096443 3.4197685578254466 10.194713170550948 -2 1 -1
167 2 15.179201762969551 8.095341331847676 6.382016539508486 -1 -2 -2
145 1 1.8945550870826067 9.023575330009313 2.2214952817618827 4 0 1
142 1 2.8567434492887407 3.260676214956195 10.296199042887254 0 -1 -2
617 2 8.282179543771294 3.5845805832309656 5.595321158916273 0 -1 2
954 2 13.970770427475099 2.060481081241102 8.496555127196748 -1 2 1
572 2 0.6110440832919795 1.8044791278878183 8.450247920566948 -1 -1 2
635 2 18.958582086379348 6.925777682335334 1.1447167320822988 -1 0 2
378 2 15.942360831038819 2.0774733042675058 5.43591040538034 2 1 1
304 1 9.298655474242684 8.111938731993993 4.34961652177904 -1 -2 0
152 2 3.4177388108075006 2.407275121736827 7.336863161271609 3 1 2
488 2 19.209786482560812 9.70336023666549 5.7724520210833274 2 -3 0
845 2 13.492111457446365 6.29223596569151 4.764362052863583 0 0 1
1007 2 9.333275652630789 9.818551513835006 4.6568041417338915 0 -1 1
602 2 14.180770136038737 6.154990068472893 8.667163141532887 4 -2 1
560 2 20.590050973481276 2.91704414257914 1.53586520233767 2 1 1
44 2 11.078881299884596 2.2062811213753473 8.579513406137243 1 0 0
887 2 20.417470083341605 6.688715967645543 3.0438317591854065 -2 -2 -1
317 2 10.116872661248658 1.4389221912638555 3.0265977335463425 0 1 1
415 1 15.268996766402275 -0.009818651208354054 3.728935196291367 2 1 0
834 2 16.23728507570402 9.094192603657698 -0.0936827767376565 -1 0 1
533 2 14.764020140460932 7.906089429601289 0.9816801983564597 -4 1 3
399 2 18.599242353107933 9.497273742864488 3.602883213920146 3 0 2
979 1 16.133593906672548 10.251820591120405 5.178759166458773 1 2 2
168 2 16.500128715721246 7.226693847499796 6.1138836890885 -1 -2 -2
980 2 16.9398190350984 9.845370235259223 4.831199674265796 1 2 1
662 2 11.914106550505377 9.957727325093476 1.9752057649946906 -3 -1 0
383 2 20.352671174756765 6.428874474317071 8.552885105402607 0 -1 0
417 2 14.540310462511474 0.6580166795993361 3.706718487574804 2 1 0
283 1 8.402811570367193 9.465929832298725 9.360306587888523 -2 0 -2
739 1 17.82269181181941 6.673339444928411 5.076461736639987 -1 0 1
346 1 2.805704558200171 5.9805259454027455 4.3468945625105535 -2 2 1
153 2 3.625841032184308 2.632625516733769 5.803276845664317 2 1 2
893 2 20.081048536743296 3.3929598433467225 8.80075275421982 -2 1 -1
305 2 9.644706114381616 7.671602556475682 3.5196838605124965 -1 -2 0
685 1 19.341086572787734 1.3127721351486175 4.440394337570958 -3 -1 -1
699 2 6.24439447602272 2.5668475325893736 2.827580701368661 -1 1 0
839 2 1.1731269774699382 2.987225897117894 4.9560897129626955 5 1 1
966 2 2.5016926237091015 8.08759419151443 1.0959712598974727 2 1 4
512 2 17.12427927888361 8.554943136294659 7.652369068218733 3 3 0
410 2 16.908262698853267 9.835440584219919 9.316556597262503 1 0 -2
616 1 7.401257211785587 3.1487646776313354 5.505387456440179 0 -1 2
292 1 12.37680440672215 8.392976861563175 2.871321372760351 3 -3 3
146 2 2.3401204001414517 9.77262050356848 2.67683973046788 4 0 1
376 1 15.249074575095026 2.7915566549894377 5.360795428139062 2 1 1
788 2 10.232790551408968 7.418041173379621 5.757332316548198 0 1 -3
361 1 2.4725802145201916 1.3671012084881418 2.4975446395141723 0 1 0
771 2 11.126139461972446 4.057248784796045 10.037623127204185 3 0 0
494 2 14.329765346727525 0.41486240328520746 0.17570707669392385 0 2 2
28 1 11.015733596154172 8.475921239766555 8.545999948763326 -1 0 1
682 1 8.711769816988939 5.224003873498356 1.0353820794917208 -1 2 -1
728 2 11.986536981460306 3.7085578394294774 1.4033401886059056 0 -1 1
398 2 18.255321828249087 8.156082083208126 4.52017494881435 3 0 2
659 2 1.2199480247811558 5.780058612692872 0.40878444230583905 1 1 1
217 1 10.69973052436507 0.8711785120368634 1.3376782724039902 -3 3 -1
534 2 13.524313516642396 7.484084419971598 1.7478883368393263 -4 1 3
267 2 10.954033652037587 9.295414683545717 -0.056037286315081536 1 1 2
984 2 16.1217403209566 4.078406917140639 4.664262977755457 2 3 0
573 2 1.924430534543052 0.9074179810945759 8.322958862573776 -1 -1 2
697 1 5.7532197443560875 3.3166326621777347 3.2058440526128895 -1 1 0
284 2 7.779016653400447 8.769703436528479 9.365732204226022 -2 0 -2
798 2 9.958915350468507 4.182481503100267 0.5854367476951862 0 0 0
448 1 13.376874841097218 5.186977204798981 7.714461135046931 -2 0 1
33 2 1.4803009281798516 7.13756825296301 4.516393945729348 -1 2 -1
832 1 16.107991560798794 8.771000280932109 0.8091361480703542 -1 0 1
32 2 0.6776919409498159 8.315028056644035 5.078993725291533 -1 2 -1
363 2 2.723212650727558 0.8012585518873128 1.7285632621426272 0 1 0
377 2 15.012101980287744 2.916759155293668 6.303306518600746 2 1 1
694 1 19.15119504163477 6.974681399288987 9.775154763162524 0 -1 1
360 2 9.415455398784816 4.9684892900124655 8.94284348955714 -1 2 0
892 1 -0.006582796691454784 3.198061158743603 9.332832212599412 -1 1 -1
576 2 5.6153769107671545 8.840459170594192 2.8929884873361487 -1 -1 1
389 2 6.896862304616245 6.245881063209724 4.92647666769828 1 2 0
836 2 3.3273743947470935 5.198784058998258 2.968397141945143 1 -1 0
559 1 0.5313951521557914 3.1094692599594285 1.958500089650914 3 1 2
43 1 10.358766207726957 2.3782797451067745 7.924261541646826 1 0 0
983 2 15.867446483973339 4.807273255324938 3.249241872297117 2 3 0
234 2 12.419305991137422 10.279654015715547 8.086830188399478 -1 0 -2
532 1 14.113184434141235 7.162743019910634 1.0787122382088616 -4 1 3
251 2 1.6517908492080664 0.8218871766545701 4.8603772012085615 4 1 2
281 2 13.949831696650989 2.1695217954394854 4.43742449302989 1 3 0
657 2 0.5284484348493701 7.664378707304401 10.250984187004223 3 0 1
143 2 2.3747915575812053 3.383789517565206 9.495438600617943 0 -1 -2
833 2 16.30390538191527 9.577412457119095 1.3085994430120627 -1 0 1
118 1 13.9120131288842 8.771224236921716 5.350214336014035 -2 0 -1
166 1 15.953876992947599 7.689438910732341 6.791537814374598 -1 -2 -2
132 2 8.580058804399286 1.3733699259531231 7.486556831304795 1 1 -2
835 1 3.507509010797575 4.910109872447055 2.038538668910527 1 -1 0
846 2 12.062917135889785 6.108045161588721 5.399829867206664 0 0 1
821 2 0.645160163298494 8.102536370884591 7.350279168920671 -1 -2 0
7 1 10.479988995078044 6.566042232990512 2.6209609985490676 0 0 1
590 2 3.8642395884008134 -0.07482937674242832 8.13049307607527 3 1 -1
670 1 11.194597915756244 0.9481674484660283 5.739551477189707 -1 -3 0
29 2 10.877044718819127 7.930658968074631 7.776806185664611 -1 0 1
456 2 16.98102134094228 1.6125222160602302 9.932990496517807 1 0 2
953 2 15.199064165879433 2.8464447742643313 8.889500103068306 -1 2 1
591 2 4.624539139067368 0.9612575124205005 9.049841560800232 3 1 -1
416 2 15.917276396086343 0.3685117757569771 4.3440357109588374 2 1 0
35 2 6.4726137372595876 8.674805956447363 0.5690222085729867 -2 3 0
8 2 10.198128534888822 6.501341321144551 1.698523821130867 1 0 1
683 2 8.672169218657244 5.8685591972919715 0.28708384030322537 -1 2 -1
252 2 1.1562932818943485 1.1205884744467636 6.276142240682096 4 1 2
316 1 9.576655502411967 1.8390752458054702 3.730083038576925 0 1 1
812 2 6.049431548703364 0.6673070919946165 1.4760206345422664 1 -2 2
424 1 4.633297004514407 6.988349134493291 8.445634185297022 0 0 2
430 1 7.40861868265399 2.986081309873151 0.002273952950717054 -3 -1 1
60 2 18.603669431218062 3.428450284169989 2.1447406897335886 1 1 0
511 1 17.787596054274623 9.1025824643017 8.24692285174471 2 3 0
687 2 20.2153182037812 1.2762865340501102 4.776318930365304 -3 -1 -1
423 2 3.996583958987666 0.31321807358965464 0.2580416675033233 1 -1 2
589 1 3.7566445912374413 0.836018182017267 8.539771001821384 3 1 -1
230 2 7.338588811250254 10.319074413051604 3.474682594382249 2 1 0
664 1 5.421038168671103 3.8880118770537844 9.654890971798071 1 -1 0
937 1 19.12881688967787 2.8251674302321437 0.53600443893471 0 2 1
421 1 4.393083697810073 -0.002281650444847627 1.0637777124022232 1 -1 2
75 2 17.364078622666906 0.6195556748058526 6.495569426155401 3 -1 -1
225 2 0.7873312591214572 9.881014844743126 1.4268984749399596 0 1 0
223 1 0.01695681011338049 10.231488668091144 0.9100979332058797 0 1 0
548 2 2.6806121048823415 9.860434881855772 5.9293335797628 -2 2 -1
161 2 5.054642085461643 0.14890326370097745 5.050932371889651 2 0 0
863 2 16.37433284215479 -0.014564031384622325 2.4493507296526453 0 1 1
336 2 12.394952503751245 0.011455132126934497 8.778059793888314 1 3 -1
864 2 16.191959891843542 0.18682171700746614 0.9943845893047468 0 1 1
386 2 2.171054586904942 7.8183227717947 17.9462986580806 1 3 -1
993 2 19.795054774151854 5.634589062027877 18.607599019816327 -1 2 0
56 2 13.846070391721556 4.348612389168942 17.890791671192275 -3 0 0
891 2 5.671447401760917 6.2952612573763815 14.446044894922139 0 -1 1
580 1 13.13298515885492 8.721656637204182 12.949761507721501 -1 0 0
909 2 8.979322109199826 3.559897258830527 15.641248774839102 -3 -1 2
460 1 6.400165661464542 8.558233507869083 17.91611164721559 -2 1 1
266 2 10.509681266254606 9.504981958285613 19.474850933993576 1 1 0
265 1 10.845004670056827 8.785555844070851 20.068210620933677 1 1 0
279 2 7.981677273604655 9.580105779471225 15.332248106300188 3 1 -1
831 2 5.899926207977378 4.3265500183726715 18.282735964728 -3 -1 1
679 1 5.199633463431683 3.7867402739394915 19.550454041703272 0 0 -1
128 2 7.153056494198514 3.082191233932452 16.756220852524947 0 -3 0
557 2 8.236086943181755 9.629334319479403 18.292060343260072 2 0 2
308 2 17.056222992115607 9.04459314143883 18.632546073780873 0 1 0
319 1 18.119731949302196 7.975984789818288 12.11000678259823 0 0 2
476 2 3.5503887904097615 0.38501141903090236 13.230190719444469 -1 1 -2
122 2 17.022566710980737 -0.0648042114651424 15.887764344909836 -1 1 -1
246 2 13.179298746078446 0.08111254465450554 13.948930803121113 0 3 0
500 2 2.7631827030938547 1.1262049942753807 19.40319754694804 -2 1 -3
965 2 2.3447329532704204 8.042641538701904 20.489734118581097 2 1 3
83 2 18.69216944050433 5.768743898233927 20.431580269199753 -2 -1 0
27 2 13.980633903150327 6.211618202846374 11.729251341444957 2 1 0
858 2 20.449706690191157 9.311590211130012 20.25715572070506 -1 0 -2
184 1 3.7652012162874406 4.298325576928062 16.632825607463335 4 1 0
42 2 10.068632542912262 7.401505389530998 11.221360677261437 -1 0 1
615 2 13.547680783145182 9.012652080131696 17.472826427565494 2 1 1
758 2 13.130972079211567 4.160071810706039 12.230521826811334 -3 4 -2
443 2 5.632662198713454 7.200626439775939 11.21975517035192 2 -1 -1
544 1 1.6183297590654522 1.2703830650296555 11.300570918682434 -1 -2 1
462 2 6.535582782733973 7.933566651081856 18.628694909568427 -2 1 1
946 1 5.1039786429475065 7.91049421722407 14.923773680137094 3 2 1
10 1 3.5472740664076987 9.992789057194361 13.747535475738406 -1 1 -1
465 2 6.572656054784858 0.5346424597785531 18.4199365414447 1 1 -2
977 2 9.61615828676014 0.16927750954724935 11.368928487081085 0 -1 2
908 2 9.503705666261391 3.6690990621712833 14.222125822010673 -3 -1 2
298 1 5.331710572411921 3.00835261085239 14.263773621097515 3 -1 -1
757 1 12.908647443488244 3.209087169579779 12.431450302639709 -3 4 -2
468 2 8.443431517232238 4.899769482815964 11.564234552642247 0 2 -2
103 1 7.216713513621848 2.132275009088869 12.326222098283328 -1 0 -2
802 1 10.635345428760145 3.765367874000016 18.594169298127078 -1 2 -3
216 2 11.566232240337495 9.622306526338352 16.396503148216308 1 -1 -1
307 1 16.230913909953557 9.29482200008301 19.121894361198965 0 1 0
19 1 14.266477006446513 0.8742198876273064 12.917766307494443 -3 1 -2
164 2 11.034557598364088 8.942614554582565 13.065509442139954 -1 0 0
520 1 3.7080553989537184 7.184419350368167 17.03228014571185 0 -1 0
78 2 19.571542706075086 3.996928287872446 15.712401662953772 -1 -2 0
48 2 4.666118587393872 5.636765283666337 19.697759074960302 1 -2 1
970 1 0.18516001900234874 3.1951005631433373 15.026104285898532 2 -1 -2
215 2 10.025472705900945 9.885310305966955 16.823054919710735 1 -1 -1
992 2 19.899570769883926 5.39895355525474 17.008658133365227 0 2 0
949 1 5.114705055602119 5.803054246596399 11.828291450217279 -1 1 -1
814 1 2.285727668607362 5.492498068406423 11.95712098451068 0 -1 0
595 1 20.177466033056184 9.477705901628058 14.753712932844897 -1 0 -1
907 1 9.32882178806568 4.171342788585116 15.003148235734981 -3 -1 2
466 1 9.029048382531732 4.318218837027023 12.053363345082047 0 2 -2
165 2 10.335712708472277 9.366481935747895 14.42981796775795 -1 0 0
46 1 4.711095859268014 6.613636238479021 19.75032243837156 1 -2 1
613 1 12.992915674229897 9.80277072723688 17.369583242293423 2 1 1
857 2 19.526624035618525 8.091711519058421 20.186237468118723 -1 0 -2
543 2 16.519348783652454 2.1467889887169753 14.722595209274148 -3 0 -2
986 2 15.920186525726312 6.12182689538841 18.03158786462691 0 1 -1
496 1 8.778215319391212 7.116226875226583 19.983026642591692 -1 -1 -3
537 2 1.9512009529931806 9.855819730875258 12.8769262642698 -1 -2 2
163 1 10.199199355058521 9.216152344197244 13.437543171627937 -1 0 0
704 2 8.753168530398963 8.290077425909777 12.388449490479037 1 0 -1
199 1 16.723139916418557 4.118889491377543 12.184017338048534 0 0 1
436 1 19.52111584018318 3.471898756143267 11.825851393835261 0 0 0
40 1 10.97266260622487 7.263362051959793 10.939594017947405 -1 0 1
330 2 7.947217866368883 1.9905046039401746 19.427269517906524 2 0 0
387 2 0.7976187091668769 8.057749012148767 18.766858502938714 1 3 -1
129 2 8.131098317127186 1.9338666393998116 17.278125428038493 0 -3 0
770 2 11.824565952165818 3.236658259830475 11.184264747579741 3 0 0
541 1 16.544373536144402 1.1482814306566154 14.574277116235157 -3 0 -2
889 1 6.1086135468723075 5.4087840110572305 14.327930841424925 0 -1 1
405 2 13.550672918229516 4.08104086783979 15.690664731321958 -4 1 1
528 2 1.7402519255657014 9.8760309841528 18.551615573784577 0 0 1
221 2 15.539056914060966 6.832365361483356 14.71626004916327 -2 3 0
226 1 17.440171087523396 2.2465862644820485 18.571037851242103 1 0 -2
84 2 18.044084711357105 4.835795914641234 19.29517731576529 -2 -1 0
300 2 5.916572224697017 2.7289148888374957 13.530454164269381 3 -1 -1
948 2 5.890789340423807 8.413888519618844 15.029842387588069 3 2 1
535 1 1.0492030277757425 9.751675995668062 12.615573509979093 -1 -2 2
67 1 19.75600163409251 6.018253583627541 13.425334761809856 -3 -1 1
695 2 18.86852583850508 7.038372069651341 10.703161764635745 0 -1 1
644 2 13.248733751026787 7.125332984277828 20.526839240878044 2 0 0
870 2 0.36450461747142127 6.777384293830618 16.34162473270982 -2 0 -1
971 2 0.6681670297188262 2.5062168912730622 15.448106288412957 2 -1 -2
57 2 13.265264710938402 5.1318273387301785 19.001432807350824 -3 0 0
455 2 16.65533243437968 3.0826155748750748 10.668284835569569 1 0 2
545 2 2.3672637633118936 0.7102606542966032 11.430808436176001 -1 -2 1
438 2 18.60118186081969 3.6494370627679342 12.126935435188502 0 0 0
950 2 5.573766859266983 5.673068371147167 12.66504461319328 -1 1 -1
804 2 11.591134951113018 3.87041269177111 18.49580983225969 -1 2 -3
850 1 11.260112241768882 6.916065960387451 17.265910925388578 0 1 0
385 1 1.7625781099739024 8.257111985194651 18.72477977364067 1 3 -1
972 2 0.9370678845736164 3.802141412563421 14.852011803549146 2 -1 -2
856 1 20.139662816750967 8.64437705276211 19.625979888110493 -1 0 -2
738 2 2.259400935089354 4.823362126364693 13.386245739069983 1 -1 -3
655 1 1.317478424283023 7.839748672627833 10.816602566831294 4 0 1
329 2 8.469617082790988 0.45619179579016306 19.41830176840764 2 0 -1
105 2 7.524645665828768 1.5595040181121091 13.068989846594205 -1 0 -2
974 2 1.2541388840888488 1.2797186674514556 20.407016347344964 0 -2 0
264 2 10.852305617411767 4.633017687619229 15.162946577317284 -2 1 -2
104 2 7.703499068577398 3.0085851323851998 12.216954580768544 -1 0 -2
461 2 6.9380683814693445 8.259158769340653 17.178145342305555 -2 1 1
736 1 2.238804113762446 4.716431841741901 14.380420194777123 1 -1 -3
497 2 9.619588036007356 7.63599699408599 19.829558321045525 -1 -1 -3
890 2 7.040217941668124 5.646937991037629 14.341404610639367 0 -1 1
76 1 18.90446314974725 4.694591648571945 15.65934884424218 -1 -2 -1
976 1 10.353471555178409 0.747757852387672 11.71405287773222 0 -1 2
676 1 8.634936991088749 6.519914102735709 14.504231784119476 1 -1 1
37 1 13.669090938746612 1.224305605751315 16.650624278961864 1 -1 -1
127 1 7.942281257926375 2.5667958596982667 16.5493430458067 0 -3 0
929 2 0.7221853219477947 0.34491419416337177 15.765772281581201 2 0 -1
521 2 3.9837762540651354 6.295980283604401 16.796018964824505 0 -1 0
677 2 8.8676053882416 6.584873088216446 13.566554299642554 1 -1 1
542 2 15.817764336778671 1.0128222959364703 13.955994671013876 -3 0 -2
596 2 19.19105903019928 9.42165173830568 14.514113916817381 -1 0 -1
554 2 19.169534239423722 8.913810044052651 18.314890460292876 -1 -1 -2
241 1 8.558751396273262 5.730558108462523 17.854797452536022 0 0 0
11 2 4.0574952866705445 9.262412990835049 14.13386448812492 -1 1 -1
815 2 1.8142483724313732 6.273234994365698 11.609217050127159 0 -1 0
419 2 0.43933626078558347 1.413801841696556 12.558252706507565 0 1 1
228 2 17.324630556380182 1.731654372165727 17.733425732141328 1 0 -2
803 2 10.476932648070122 2.888910315346455 18.15986647096246 -1 2 -3
204 2 19.49932347119562 0.01634861406515159 19.55825914191446 0 1 -2
243 2 7.563171032124014 5.47666577505702 17.69822529965155 0 0 0
176 2 17.735951682451155 0.42834890648933327 13.634260667488878 1 2 2
242 2 9.032328570901653 4.836663372669661 17.952057970725317 0 0 0
797 2 10.744277358878223 3.4780787262344166 20.290119696318264 0 0 -1
975 2 1.1170416699547325 2.575006332696791 19.447883343582085 -1 -2 0
959 2 14.034527406121528 7.1302562891859775 16.73339718503185 2 1 0
737 2 1.8603416588745842 5.5906086095630965 14.71889610134642 1 -1 -3
499 1 3.7266050609160373 1.3621734892466673 19.42673183609825 -2 1 -3
177 2 19.136895348509203 0.392411679249643 13.012965869457696 0 2 2
186 2 3.3645682851698138 4.303615843289835 15.720814432554775 4 1 0
321 2 18.545717423555523 7.420278701158987 12.78619941846645 -1 0 2
985 1 16.807604938904564 5.8081079038402965 18.016296760462804 0 1 -1
681 2 4.482905022221719 3.1362548771639998 19.376321734547933 0 0 -1
991 1 20.42573230190573 5.7169879119768 17.80246583346392 0 2 0
501 2 4.149954129934155 0.9252144223494945 18.739773589813314 -2 1 -3
759 2 12.283390508308804 3.2221399368289925 13.227471990721241 -3 4 -2
556 1 9.128592286834026 9.956232071952881 18.29788185953705 2 0 2
493 1 15.210997365447156 0.6491468533510796 20.748751216140786 0 2 1
77 2 19.196769033630574 5.163470854003707 14.804500911248692 -1 -2 -1
202 1 19.40394345693621 0.9971661980155295 19.56909821792576 0 1 -2
213 2 6.634645892124834 1.302312484648253 10.503959789924776 0 1 -2
947 2 4.681553862203498 7.7420058120411035 15.816603311472974 3 2 1
12 2 4.115833068632661 10.108170414038723 12.933339295673017 -1 1 -1
483 2 15.444021797111612 0.04295454034969115 19.309281900148385 0 -1 -2
958 1 14.382824742250586 7.553541198059179 17.565265760088387 2 1 1
21 2 13.947583928158156 1.8069812013033324 12.770396254594079 -3 1 -2
852 2 10.44545398663965 6.510670411117926 17.51638878656185 0 1 0
437 2 19.758819464434286 2.6942463432823924 12.32164896530349 0 0 0
403 1 14.290223261390523 3.7463012290106956 16.235804552457935 -4 1 1
444 2 5.8340546629817895 8.76577713967626 10.971126618141463 2 -1 -1
38 2 14.149242424626076 0.7767786437441246 17.357823226392846 1 -1 -1
816 2 2.3031467747815255 4.824007233728579 11.299956180591742 0 -1 0
851 2 11.00800197747636 7.750011180600867 16.805249860150166 0 1 0
645 2 12.33514607975163 7.7966289047618655 19.50581391707102 2 0 1
156 2 17.264591745177068 4.076829485390245 15.473163944614553 -1 2 0
185 2 3.1787281420827123 4.432942394234706 17.438862562647333 4 1 0
829 1 6.284119040697234 4.576761065526627 17.326256123013735 -3 -1 1
960 2 13.819287636759112 7.236835643783187 18.36492838457028 2 1 1
930 2 1.1652342586897873 0.6977901006241647 17.10254835364091 2 0 -1
278 2 8.237788187066483 8.04210461976443 15.245693951777355 3 1 -1
159 2 16.297743376355882 2.9112797215131905 19.559249256014706 2 1 -3
55 1 13.457468520287192 4.237625281772415 18.809643971383736 -3 0 0
262 1 11.793738802974744 4.858914547632871 15.424038391105785 -2 1 -2
133 1 13.758741832757236 6.935440455505634 14.819905664804944 -2 -2 -1
624 2 16.240209851956077 7.10040175611045 11.570533767533881 1 0 0
522 2 4.231127161911206 7.356596443622947 17.851355384603227 0 -1 0
478 1 3.7197812955955327 0.8063047108407007 14.940091283086243 0 1 -2
498 2 8.603474453991172 6.599335696933487 19.12910014267001 -1 -1 -2
39 2 13.57890599508097 0.5244069814381476 15.971971906307068 1 -1 -1
818 2 0.9638525607460713 4.558044316066108 18.258274069178633 -2 1 0
82 1 18.84445941310231 5.002570476568057 19.820221289952745 -2 -1 0
810 2 17.079678328662858 8.716958769949741 14.752005981785283 0 1 2
68 2 20.543736515127787 6.275409097964918 13.932370119674353 -3 -1 1
819 2 1.8763122808139114 4.56475039832056 19.486758584791552 -2 1 0