LAMMPS data file via write_data, version 8 Apr 2021, timestep = 22016000

576 atoms
2 atom types

0.30049792088962296 17.61950307911398 xlo xhi
0.09549692088845303 17.41450207911409 ylo yhi
0.44549792089004175 17.76450307911408 zlo zhi

Masses

1 16
2 2

Atoms # atomic

52 1 2.1712103427032736 2.682727173270116 3.269628784940374 1 0 1
53 2 2.109691767943432 2.102255608277065 4.044437048682208 1 0 1
54 2 3.0637003100450273 3.1153545271525585 3.2330690119192256 1 0 1
129 2 2.068868669177904 1.6019569364928359 1.8462534929979042 -1 2 1
158 2 0.827536817870546 3.618369479396219 3.828314203518748 1 0 -1
130 1 4.442730764772492 3.8393773181183826 3.115872234313379 2 -1 1
127 1 1.8273546620850603 1.0620441459062153 1.093900167684649 -1 2 1
128 2 2.6839627682380565 0.890263095243436 0.5988757183241478 -1 2 1
422 2 6.295096344869788 3.7036732916195403 0.8403413720452456 0 0 -1
132 2 5.119963789107473 3.968538561668195 3.8523412989284846 2 -1 1
528 2 7.604799115965996 0.7790395986649469 2.2899451514606057 -2 0 1
526 1 8.019666779074855 0.9350120770108957 3.218807261400137 -2 0 1
290 2 8.33907702551576 2.8530471592144435 2.788504766716633 0 0 1
544 1 6.531628949845755 1.092218549726981 0.690215546936908 1 1 1
291 2 8.072418364739933 4.256914406288206 2.335673267893017 0 0 1
289 1 8.798215907800333 3.7351850170496177 2.620840086956333 0 0 1
527 2 8.931212528600799 0.5351267038899908 3.169220769467746 -2 0 1
546 2 5.693179405700625 0.5773955104235997 0.519230314189612 1 1 1
138 2 1.6161206646047006 8.010140648434101 0.7864742149391256 0 0 1
472 1 1.3111455326022485 6.970667035221204 3.6493884185889867 0 0 1
474 2 1.575208725982317 6.523396104321375 4.502696633007584 0 0 1
473 2 2.096391943433378 7.466126661603103 3.3824332362075227 0 0 1
131 2 4.409300638398368 4.741765321174183 2.7624785737728033 2 -1 1
450 2 3.0988626289919066 8.554164566891115 2.054546258521041 0 0 0
449 2 4.353513713428847 8.587319961068763 2.9367550056187777 0 0 0
136 1 2.462666353801006 7.562578084157982 0.7873385656853696 0 0 1
87 2 1.1862077752869093 5.905652853253442 1.3993934169506004 1 2 2
85 1 0.46846298525611146 5.304121601773039 1.1257165432680205 1 2 2
126 2 4.122433521648929 6.412768311137947 1.2295163593881864 -2 1 1
124 1 4.756698165697351 6.1207003790122405 1.8191991893723711 -2 1 1
442 1 7.780881522694335 6.6174794011117095 2.3977197323530484 -1 -3 1
366 2 7.92638425574004 6.384074375422504 4.126652509314697 2 0 1
221 2 6.433102735284442 8.229158844784767 2.579478845332997 -1 2 1
443 2 7.796694375984949 6.140037854508473 1.5936464889205544 -1 -3 1
125 2 5.562644749820005 5.67734829799438 1.414944248189263 -2 1 1
444 2 8.58405128144603 7.170011648687763 2.363665912914644 -1 -3 1
421 1 6.921438495785097 4.494061404502593 0.7918443099440966 0 0 -1
448 1 3.3892243456447035 8.799445431025813 2.9508280905087876 0 0 0
18 2 1.4129086386829157 9.52578368389431 3.204373026880664 0 0 0
469 1 0.6682447448516686 9.579523191911353 1.199472688585634 0 -1 0
276 2 2.300232614108248 11.599106617864287 4.434406805453512 0 -1 1
506 2 3.9406646662929297 12.706063498205543 3.471773480662883 -2 0 1
274 1 2.998239912461763 12.255101986333942 4.760764271915512 0 -1 1
16 1 1.1510203168027702 10.116873217821222 3.955157552554326 0 0 0
470 2 0.8668282203445865 10.446408563350207 0.7608471450445001 0 -1 0
51 2 1.5841155878827646 12.529508125234274 0.7416230172629621 0 0 1
542 2 7.237823606020172 11.826636777342788 0.7401296639609845 0 0 -1
222 2 6.818141818762634 9.374006063647496 3.46378746230282 -1 2 1
220 1 6.1978442713645086 9.126690891239889 2.7737337796685955 -1 2 1
539 2 5.8271303767256315 10.659173476293814 1.6370874282982517 0 1 2
540 2 5.14043941573822 12.056722122378815 1.8396080041912661 0 1 2
517 1 8.274688287218249 10.137506126291134 3.977071685248033 0 -1 -1
538 1 5.73828270266208 11.563054921453853 1.2348337036713037 0 1 2
518 2 8.231593601401938 11.087055311937256 3.6297965845607463 0 -1 -1
465 2 8.36862191679301 12.811307215217838 2.0314395796691236 2 1 -1
463 1 8.419745073661385 12.745161906699284 3.056675005788684 2 1 -1
541 1 8.17333331265853 12.099666226332998 0.5858414291190222 0 0 -1
294 2 1.0097235345552389 17.202708115420762 1.9821727662185942 1 -2 -1
505 1 4.327707626436065 13.198371242816997 2.6797598499048485 -2 0 1
292 1 0.41799865168245215 16.64305784438644 2.551417552818868 1 -2 -1
532 1 1.8162676333431989 14.128763161324416 1.9408676902031499 1 0 -2
533 2 2.721929742668657 13.877478956429385 2.3804929104422485 1 0 -2
102 2 1.4925692395328722 16.108897838276057 3.922849481918749 0 0 1
100 1 2.079444897248839 16.207211727923788 4.668940205837731 0 0 1
534 2 1.920370724491653 15.062124738571198 1.6740128299684363 1 0 -2
464 2 7.690704287859727 13.337641812223202 3.255816125555453 2 1 -1
507 2 5.09762557615649 13.78283495876159 2.9801152843976646 -2 0 1
226 1 6.489763326531919 14.741782640864233 3.3637881679604553 -1 -1 -1
227 2 6.110533769956192 15.302116846794698 4.03115932333917 -1 -1 -1
228 2 7.008392494246044 15.417352944324016 2.8423875652836395 -1 -1 -1
484 1 8.045663670562845 15.374096349119933 1.2986197076471464 1 0 0
485 2 8.81511234108234 15.835394359689856 0.9709485776027126 1 0 0
561 2 5.581816987582495 14.033601825491827 0.6589394228459774 0 1 2
486 2 7.4515056176395005 15.272677632450112 0.5121471946353998 1 0 0
392 2 0.5439665789973906 3.2708523862996888 8.220077754211701 -2 -1 1
24 2 0.4169334368824557 2.2415872906202536 6.2225319847268485 0 0 2
352 1 1.6879941748858942 1.2981280636157904 5.591429099521902 1 0 0
353 2 2.4320993957252113 1.2860273288090243 6.266733431948907 1 0 0
269 2 3.66605117898132 2.493840924888769 7.1884180039658405 1 1 1
37 1 3.492722364253325 3.944916873173834 7.04288832514881 0 0 0
268 1 3.823701542151143 1.4760252983735052 7.287557083405922 1 1 1
354 2 1.6206928459454006 0.3813115508659413 5.29336648765488 1 0 0
270 2 4.539919917317362 1.3687781957042777 6.596007549890896 1 1 1
564 2 3.753997930511568 4.176993247231115 8.721928672657883 1 1 -1
38 2 2.5659543820457182 4.1990661605206885 6.67871028599577 0 0 0
43 1 6.133403750436146 3.8336670847474177 5.1095425829407395 0 0 0
80 2 7.045892868132964 0.6253300361712884 4.8907280442064165 -1 1 1
375 2 8.4198945649294 3.0400204207910395 8.847910667946202 0 1 1
91 1 8.806341202767761 0.4459053530459333 7.271658276360032 2 0 0
225 2 4.915405907805784 0.8948863709951167 8.770454184248704 1 0 -3
79 1 6.610391621257334 0.8094391657028754 5.728883548681646 -1 1 1
59 2 8.502605326628197 3.7282190035788094 6.752152027138649 1 2 2
81 2 7.333164800826384 0.767804645269245 6.376914617439565 -1 1 1
45 2 7.073448309361421 4.128212451571091 5.0494077180748675 0 0 0
58 1 8.13818734756078 4.150606559775013 7.525165040178214 1 2 2
44 2 6.1470653564663875 2.898308967872225 5.355039036583915 0 0 0
213 2 0.802560254626822 4.950213513322289 5.192875648928288 -1 0 0
39 2 4.154316830055766 4.478594388079496 6.683674389918992 0 0 0
211 1 1.4248979377519202 5.368256413613975 5.839655912588562 -1 0 0
212 2 0.90182734961973 5.798593688485106 6.547740897928594 -1 0 0
425 2 3.1362078934284288 8.47972153037094 6.087744205051244 0 1 1
333 2 0.5635680670264005 7.743312147656421 6.721920891718625 1 -2 1
344 2 4.311923011935404 6.864891689097354 5.008578674133705 3 2 0
343 1 4.78237783475294 7.516028303958809 5.509277792990743 3 2 0
364 1 8.178409547113331 6.028434873701939 5.042877178132621 2 0 1
167 2 6.038066813129442 5.910576073959422 8.366339763179802 1 1 0
168 2 6.372277881009396 4.982806283403584 7.180158804222858 1 1 0
166 1 5.680605111195466 5.646054879577553 7.492722439433238 1 1 0
68 2 7.112450811678655 8.351368780782085 7.036870387277318 1 -1 1
67 1 7.981651852421575 7.919999129153685 7.051287921091351 1 -1 1
69 2 7.946588498926567 7.245015523624226 6.351516926775477 1 -1 1
345 2 5.281310342600172 6.9611864010175735 6.1476176855684574 3 2 0
60 2 8.656896912588874 4.947536582114469 7.918525047324472 1 2 2
459 2 8.720152854619206 7.073310312076419 8.220313095131322 0 0 -2
338 2 4.196553766900761 11.575088760532495 8.560048271099838 0 0 -1
177 2 4.5165182209719745 8.777403947570116 8.987924901814006 0 0 -2
275 2 2.4416296340359587 12.842571613337341 5.260439535481374 0 -1 1
424 1 2.2103926358736343 8.90131652598026 6.246146493848453 0 1 1
342 2 1.8461505784894743 11.345116631579666 8.152339626380847 -1 1 -1
340 1 2.6055092855272175 10.745834410308854 8.382233029204373 -1 1 -1
426 2 1.9660319037572875 9.200055558884209 5.323448050222699 0 1 1
341 2 2.5396309846023732 10.168106467997259 7.591457078932064 -1 1 -1
25 1 0.5829920278265417 12.232863751878472 7.9430782721266 2 -1 -3
309 2 4.3100343105356105 11.181237903467467 5.010221779039034 -2 -1 2
27 2 0.4723264258049534 13.012488176103382 8.563869586621179 2 -1 -3
337 1 5.013252467902864 12.027743930123938 8.675112078714841 0 0 -1
519 2 8.747782321456942 10.260582589156895 4.835000171527236 0 -1 -1
339 2 5.314225221663726 12.58682328054284 7.951326948440934 0 0 -1
414 2 5.304000511072418 9.939095105765581 7.023010762215068 0 -1 2
307 1 5.201585275171101 10.900293880625975 5.1781708799498505 -2 -1 2
308 2 5.3038358520404465 10.009517677093934 4.906094338854353 -2 -1 2
413 2 6.1119780669717185 10.196870361793888 8.277311671649544 0 -1 2
412 1 5.799515902992743 9.46345390206889 7.7461748936604105 0 -1 2
549 2 5.924067362466302 12.831089006830576 5.922457616207232 0 1 -2
509 2 3.7307617349837425 14.480526745690767 8.572587368840294 0 1 2
498 2 4.386989744773125 15.944856270863536 5.072197655715704 -1 -1 0
249 2 1.5645792544409773 14.76330998155788 8.962597082514938 1 -1 -1
229 1 1.2211407073386267 13.910212638691897 5.748326712508846 -4 -1 0
230 2 0.9826510900734458 13.398028015950004 6.526276493292827 -4 -1 0
231 2 0.43790917831370546 13.87567795987757 5.159549130295688 -4 -1 0
508 1 3.135018524808571 15.20077100940433 8.857182411274335 0 1 2
101 2 1.8225972443427423 15.486089177094971 5.241214664999051 0 0 1
547 1 5.941776953508778 13.544002539553496 6.593574409819015 0 1 -2
497 2 5.6511944332426935 16.771919198844298 5.589858395007517 -1 -1 0
496 1 5.32629262847635 15.87264218755513 5.303288597818063 -1 -1 0
110 2 7.477515717153032 13.918312292492567 7.375791912353251 0 -2 -1
548 2 5.550230882255859 14.333957919423616 6.141644145690985 0 1 -2
109 1 8.077374643262242 14.192370022811067 8.115664599043532 0 -2 -1
111 2 8.882625667945645 14.524865452631017 7.716507540264442 0 -2 -1
563 2 3.8737467301201383 3.307980438072923 10.144113855257268 1 1 -1
161 2 1.8644527443159435 2.362213954109852 12.418867177760934 2 0 -1
3 2 3.86124771261675 2.460812204689331 12.060684999691276 0 -1 0
160 1 2.6150246471700016 2.290136942417975 13.089398636119336 2 0 -1
393 2 1.7310108732511613 3.7957142290100667 9.277095287626578 -2 -1 1
456 2 0.636697097590204 2.734605872341406 10.378293673595833 2 1 -1
391 1 0.7840368612690438 3.6561885738900863 9.152580598317861 -2 -1 1
562 1 3.347914863028117 3.9259034369853154 9.602475501731284 1 1 -1
454 1 0.667865507623416 2.1301224506607936 11.20976850543146 2 1 -1
455 2 0.5608090594394062 1.263615776229598 10.868312388435397 2 1 -1
1 1 4.6889065096804545 2.6347426097159348 11.470338778370936 0 -1 0
2 2 4.880817982481579 1.7752210692305503 11.028773738798165 0 -1 0
302 2 6.463261131328439 2.909107757052482 11.818279055965707 2 1 -1
301 1 7.4072332555505795 3.142006956453885 11.881007547745936 2 1 -1
461 2 8.122219622488982 1.9588389984935954 12.913800541775867 0 -1 1
374 2 8.264977099515246 2.4111246120184457 10.181979303203905 0 1 1
224 2 6.153059773089624 0.1643499116045508 9.564388459180282 1 0 -3
223 1 5.34468278018467 0.7065783925421687 9.65929367911597 1 0 -3
460 1 8.5110748153036 1.19811635619487 13.402586155848862 0 -1 1
303 2 7.385351468261507 4.116992093087834 11.817804543978113 2 1 -1
373 1 8.87193944770819 2.405750235635213 9.438882782122672 0 1 1
296 2 4.174391973499573 5.273117820100045 10.379929570726066 -1 0 -1
297 2 4.462388617608844 6.772771157795112 10.42028424213192 -1 0 -1
483 2 4.565664533853501 5.883972499646774 12.36014700961607 3 1 -2
481 1 4.471698745349807 5.850494580850247 13.335163549762633 3 1 -2
175 1 4.412846192163132 8.271252554690447 9.834054808994818 0 0 -2
12 2 7.761701889034029 7.014798484319526 10.948999406119187 0 1 -1
295 1 4.830205041716885 5.904582940618216 10.660085535646669 -1 0 -1
11 2 6.870126584295124 5.757917185248799 10.829807448719983 0 1 -1
10 1 7.805418910420582 6.040077154736896 11.141809526921577 0 1 -1
401 2 6.4208609922980155 8.474387505616649 10.193241967163829 -1 1 -1
458 2 8.768197113275162 6.181283553548538 9.595695183938048 0 0 -2
15 2 1.8707474894365088 9.258980959531696 10.993723603631773 -1 0 -2
13 1 1.1260271261066064 9.40220226702315 10.328089335852825 -1 0 -2
202 1 1.9992215184134858 11.732827861477494 12.475565962162202 1 1 0
97 1 3.3375024470510852 9.614520328895964 11.918827300411964 3 0 -1
99 2 2.986185254922001 10.527928874595368 12.026082574503203 3 0 -1
176 2 4.068711704208373 8.871309623481377 10.552983701887607 0 0 -2
98 2 3.080579441722198 9.145854679788144 12.731326000439493 3 0 -1
203 2 1.3178981400121634 12.273780572601158 11.961085051297625 1 1 0
14 2 1.5998304441331699 9.839927637270069 9.56480877314715 -1 0 -2
204 2 1.5634376908525007 11.740445715271152 13.31207337085659 1 1 0
400 1 7.231790802814942 8.76602238045486 10.628857222657123 -1 1 -1
402 2 7.555183113028867 9.512574580413084 10.054427365283225 -1 1 -1
370 1 8.215405929688341 10.526607897503665 9.275862306589282 -2 -3 0
207 2 5.672875405955423 12.192089023338244 11.563051109764356 0 1 0
164 2 7.329023312527427 12.93968595965523 10.91601116448554 0 1 2
163 1 8.242346174587965 12.852259381374385 10.669022262106646 0 1 2
362 2 6.599330840936377 9.825554283337798 11.738533071991798 -2 1 0
371 2 8.19235880613733 11.488300823752912 9.480140742105364 -2 -3 0
361 1 6.074232729617413 10.528387140867757 12.169376042519026 -2 1 0
363 2 5.282250413576897 10.084547703255291 12.226077402550843 -2 1 0
510 2 3.3862234052403 15.35358554651485 9.780906678644824 0 1 2
84 2 3.9758399407053076 17.00215940599826 10.48910810938558 1 -1 -1
28 1 0.6851954104153513 16.838273786313007 11.599136432641375 1 0 0
30 2 1.609095320192405 16.47316552657196 11.562960961511768 1 0 0
29 2 0.5449393117123644 17.123541510915686 12.502754107899273 1 0 0
82 1 3.4725343749435122 16.444168893045628 11.160624470645018 1 -1 -1
83 2 4.1761045903443765 16.026316873418303 11.727948206776404 1 -1 -1
247 1 0.6430659023579548 14.468120028510201 9.226783041368497 1 -1 -1
206 2 5.381106002288126 13.216951163471988 10.40501062177922 0 1 0
205 1 5.62856613562196 13.140273745921544 11.390521533527167 0 1 0
165 2 8.255421597479735 13.458806053044604 9.838837882796746 0 1 2
299 2 7.4874221520744335 15.517415924629345 9.173836031670517 0 1 -2
300 2 8.263445331074067 16.35632685775163 10.274886581345356 0 1 -2
513 2 5.778979582734238 14.729753820208975 12.008968536804659 0 0 0
511 1 5.866140269590504 15.699073092106994 12.271608323317096 0 0 0
512 2 6.469242652470654 15.943748825471975 11.51147510621134 0 0 0
298 1 7.390015616960767 16.12269426816585 9.992078623612638 0 1 -2
240 2 8.750495043916576 13.441007350975111 12.456435564964899 2 -3 -3
162 2 2.5946500393840344 3.1747700869710838 13.461465615320996 2 0 -1
258 2 3.6639141051705106 1.002163984030527 14.17225688213223 1 -1 0
398 2 0.8265121930251262 2.1074138006996006 16.878248182478153 1 0 -2
256 1 4.229328441382246 0.7365528182733097 14.933663679227394 1 -1 0
72 2 4.039532715814627 2.221493708586822 15.830879921114411 1 1 1
70 1 3.925553018371841 2.8053272588796507 16.624552113038245 1 1 1
555 2 0.5185482063543377 0.9475138927646556 14.887054812703678 0 1 0
399 2 0.3196205572905228 3.297128086679468 15.959039204149578 1 0 -2
48 2 3.1680589785340145 3.9318627415274974 15.553723653442676 1 0 0
46 1 2.8213336972415726 4.376977915920188 14.767396782862443 1 0 0
71 2 4.7245438418455015 2.7224118581204313 17.0897644790293 1 1 1
257 2 5.097240983341394 0.4748557474660934 14.63455685831398 1 -1 0
492 2 7.3246030711327155 0.29776606261133826 14.085175781815144 0 -1 0
570 2 8.482963225918079 1.6174906380893823 15.146881399231114 0 1 -1
568 1 8.605539283849106 1.4782064482074986 16.09303243669427 0 1 -1
545 2 7.121485419990909 0.9523873041441852 17.288074627975735 1 1 0
287 2 3.5457736983678587 7.342722747982609 13.7809379898321 -1 -1 -3
409 1 0.3535562289349411 4.8219729496532775 15.659858519195291 1 0 1
325 1 0.3232150690103189 7.428459154954787 13.465524511182382 1 1 -1
327 2 1.2746658535864674 7.40532241634244 13.692645144764944 1 1 -1
411 2 1.286073552412619 4.629898040582218 15.275022965181535 1 0 1
286 1 2.9791863119353157 8.033300097125892 14.14029388430711 -1 -1 -3
288 2 3.3991852213696747 8.34182877940849 15.017576750528088 -1 -1 -3
137 2 2.951083668129375 8.040314913991581 17.35563638451964 0 0 0
47 2 3.5479959516046886 4.837546926247036 14.312847841351928 1 0 0
86 2 0.3876393731205051 5.548793551584122 17.460004829189398 1 2 1
504 2 7.599912884095557 7.2332235185935305 13.619730970439585 1 -2 2
482 2 5.393537072299353 6.027590590717017 13.672935057885292 3 1 -2
170 2 7.398737124760696 5.645304272605182 15.259925085806676 1 2 0
502 1 6.792121403274364 7.0318556451941285 14.184404025275718 1 -2 2
169 1 7.65389455998728 4.84629151731067 15.73796838465079 1 2 0
503 2 6.7987651082602785 7.635878022228019 14.922952964771774 1 -2 2
423 2 7.264936385940662 4.62261213358507 17.166468090479388 0 0 -2
114 2 5.012556782950481 8.701206077973856 16.496399062873486 0 0 3
171 2 8.506612149822745 4.5065047628270705 15.301020616135883 1 2 0
112 1 4.088734643749736 8.779320760422173 16.287011555192628 0 0 3
347 2 0.996638211340084 11.763871248766394 15.38965209916995 0 0 0
319 1 3.987481798606759 11.39038943454372 16.134549351554643 2 -1 0
113 2 4.007488205522594 9.727353291993852 16.094733426967693 0 0 3
50 2 2.5475767650480603 11.808503532193214 17.01596124960488 0 0 0
49 1 1.63580788544222 11.87402507565182 17.329119124007693 0 0 0
321 2 3.9208091760916792 11.978959971449825 15.36545482377506 2 -1 0
389 2 7.352887896202672 8.776526492264082 16.91648704829048 0 2 0
388 1 6.6486546157912905 8.819453348125272 16.310349618281794 0 2 0
320 2 4.785824122052256 11.619230330362624 16.63470033301389 2 -1 0
33 2 8.39806838437988 10.973390572678202 14.737397407952665 0 1 -1
390 2 6.734198546232167 9.564235207163385 15.697662372284222 0 2 0
31 1 7.410541394117931 10.917962054464358 14.707682520744903 0 1 -1
32 2 7.154611373771362 10.642750773772438 13.788790379228328 0 1 -1
185 2 6.681871543345892 12.664154134241368 14.936487416330838 -1 0 -1
543 2 8.58992582536377 11.17743006978421 17.712579068264223 0 0 -2
536 2 0.6271049175050702 14.573775638318647 15.473986723992581 0 -1 0
553 1 0.4373702603077683 17.393824319631875 14.387421625040512 0 0 0
191 2 3.8770615346812916 17.06996248941457 16.140509087571782 1 0 1
190 1 3.617743497297838 16.69200309300411 17.090762520907326 1 0 1
192 2 4.158847437432998 15.915403158344626 17.301259343968155 1 0 1
565 1 3.588929356457887 13.31890583578866 14.41554576694041 0 0 0
566 2 4.543513842634377 13.555660241922238 14.199767855641467 0 0 0
567 2 3.102625054485095 13.13714224017891 13.581353948912708 0 0 0
554 2 0.83704644917008 16.71705661245178 14.93367266059271 0 0 0
433 1 2.026275408281276 15.27542121707918 15.526239742287549 1 0 0
434 2 2.4858183196110044 15.706496554343458 16.285556461556382 1 0 0
435 2 2.608208226968523 14.621248221097431 15.12963434243212 1 0 0
560 2 5.736676830148251 14.269849939447118 16.40365122640403 0 1 1
379 1 8.887131712049175 15.525779213281671 15.067923319543723 -1 0 1
491 2 6.3702667137404925 16.46291778561112 13.739978140024284 0 -2 0
490 1 6.591684475839161 17.024881250743487 14.50415230429802 0 -2 0
559 1 5.580515575394636 14.692894210768975 17.288772391324894 0 1 1
186 2 6.992136034134023 14.07353884735252 14.562130085207334 -1 0 -1
381 2 8.06794439279576 16.029585300808126 15.023519682694431 -1 0 1
184 1 6.312916692041276 13.552747396050009 14.896674091466608 -1 0 -1
115 1 11.751616959938222 2.4787323093116687 1.8413170363231828 -1 -1 0
116 2 11.77719777051243 3.1511819039068083 2.506681027867742 -1 -1 0
117 2 11.048546493352784 2.7803024802196807 1.2122648136501248 -1 -1 0
516 2 9.313717434280177 3.4390530264031525 0.8118354107189784 1 -1 2
419 2 12.881119701642906 1.47989277158436 0.8485559626311108 -1 1 -2
427 1 12.564165940251035 3.1514530598767565 4.404996659647627 1 0 1
77 2 11.297639769868931 0.8759239516878452 2.704305975650152 -1 0 0
76 1 10.790716766431693 0.15341292706055826 3.181018544000041 -1 0 0
524 2 9.577131852076702 2.6308019936194382 4.609904468154726 -1 0 2
417 2 14.847602491242656 4.21794591458571 2.726567563510525 0 1 0
415 1 15.28219427589075 3.3368737067584857 2.6550537009605097 0 1 0
6 2 15.144903772805696 1.7110057603956048 2.9726588483671144 0 1 0
416 2 16.147484526594248 3.5361951736705404 3.0770648234934206 0 1 0
441 2 15.341201571946046 3.30657501934871 1.026340543467918 -1 0 1
4 1 15.228529933323038 0.7652252131581526 3.1681374372759072 0 1 0
5 2 14.668631506916215 0.46543633048480054 2.4647981623942314 0 1 0
157 1 17.367379537610844 4.187393127654 3.7694469451079127 0 0 -1
428 2 13.541232996322048 3.2331147603874966 4.413951070750086 1 0 1
55 1 12.306042903536174 6.861801149026203 1.5580181094110106 -1 1 2
90 2 11.196427984442813 6.12728718528317 4.333485558486737 -1 1 0
57 2 12.282959620329216 7.798356215906111 1.3870574049033049 -1 1 2
56 2 11.901781395513433 6.3743132355212495 0.8537978525910939 -1 1 2
530 2 10.690087216873161 8.475459005946316 3.0470889933103766 1 -1 1
89 2 11.300783692113669 4.608135960344182 4.597409219592217 -1 1 0
199 1 11.706734622367948 8.606157488547776 4.425412574699939 -1 -2 -2
529 1 9.781767906853492 8.388238002727606 2.6895406691695367 1 -1 1
233 2 16.847178415704764 7.1839307434194115 3.054864133680893 1 -2 -1
210 2 13.379489349555586 6.127565580334096 2.4371089098697127 2 0 1
208 1 14.158682165999993 5.707090147117627 2.9762543242663924 2 0 1
209 2 14.81977395853386 6.3965934104614375 2.8056189778181135 2 0 1
232 1 16.004705736932557 7.625502534550868 2.917835361501759 1 -2 -1
234 2 15.91133094706217 8.00878692549162 1.9909808289481585 1 -2 -1
368 2 15.72757577306813 8.56678463396978 4.410260429972555 0 -1 2
103 1 15.53996779147576 8.571837776117565 0.5419054412617424 0 -1 1
159 2 17.537980458157616 4.646180519278142 2.921279014295503 0 0 -1
305 2 9.60390224736861 8.926180638224798 0.9186486801903552 -3 1 0
262 1 12.393944029546859 9.442028980976334 0.7802388886536248 -1 0 1
552 2 12.488945936885353 11.182919405579831 3.163566954832544 0 -1 0
551 2 12.84573462044698 9.688811368058957 3.568104574164587 0 -1 0
550 1 13.114582696891521 10.439135623104796 3.011367355632949 0 -1 0
263 2 12.706802455370113 9.880896828615606 1.6396400910090356 -1 0 1
153 2 10.244620957873893 12.124905243940137 3.3213979389122468 -1 -1 0
151 1 11.190262802557166 12.256391826328976 3.485576694766965 -1 -1 0
531 2 9.209746086685723 9.109965429228293 3.116191664362826 1 -1 1
152 2 11.351289614177864 12.338924209912786 4.419677139012463 -1 -1 0
501 2 15.657616923484284 11.954738904180228 1.2458044806871396 -1 1 1
383 2 14.925870475940028 10.781725918206698 3.0106133002563222 0 -1 0
382 1 15.810006519999831 11.1793871572001 2.903308928611017 0 -1 0
384 2 15.768179569902795 11.995468591885379 3.4565723343898784 0 -1 0
471 2 17.026057026789776 9.38251047498134 1.0711016477202908 -1 -1 0
17 2 17.477947988858578 10.218869485292107 3.7102197067568126 -1 0 0
499 1 15.584107484178642 12.701280510633149 0.6614427803203584 -1 1 1
78 2 10.923373837072804 16.701383794393884 2.575197830100979 -1 -1 0
377 2 12.145207606998849 15.386427577242321 1.8880886022868777 0 0 1
376 1 11.295244200018585 15.586185384481869 1.4214666574239687 0 0 1
198 2 11.180174919375704 17.062143737906343 4.711443386660218 -1 -2 1
378 2 11.024125706103206 14.740388092949345 0.9375597001266796 0 0 1
183 2 16.238113241801628 14.192357814037212 0.9148782911552815 0 1 1
574 1 14.614662066771505 14.853048300803147 4.672684335381693 0 2 3
336 2 13.946044342417117 15.121168549596385 3.2793257753692235 0 0 1
334 1 13.673752123723572 15.26913657187614 2.352405164385716 0 0 1
355 1 16.95684559374341 13.75300661606707 3.8043300555299435 1 0 -2
335 2 14.513887340226844 15.370509765559143 1.7696543846836668 0 0 1
182 2 16.672946029603295 15.585950708324734 1.3606375859090318 0 1 1
293 2 17.026121525344582 17.27475646774155 2.8198931601145887 0 -2 -1
356 2 16.36000065549812 14.532025362462639 3.886481066632525 1 0 -2
181 1 16.061465598279874 15.15245039191465 0.7722206643664992 0 1 1
357 2 17.593417652133056 13.951692880022943 3.078575124785997 1 0 -2
318 2 11.117415737398083 2.7967805891496345 6.723673740026001 -2 -2 1
316 1 11.909597171185078 2.2423408817503003 6.81978537030128 -2 -2 1
317 2 11.727686913556855 1.4629656429590976 6.3054888746235935 -2 -2 1
429 2 12.434341896472537 2.9334114335531956 5.3398621986525265 1 0 1
453 2 11.652026013915377 1.3907625705276214 8.601418765069862 0 0 -2
525 2 9.287424811811492 1.6217852628048304 5.736481256471465 -1 0 2
523 1 9.469063945703448 2.5362424274634554 5.584748438735358 -1 0 2
92 2 8.965192798111163 0.9305605345997375 8.08518735412768 2 0 0
237 2 14.371228845796779 0.3743734216070645 5.387951649167028 -1 1 1
351 2 13.85553372210241 3.520070729288619 9.069117320352174 1 0 1
432 2 14.600514538502738 1.6089045041324073 8.551522972842399 1 1 -1
431 2 15.958761603790075 1.8388476692410485 7.732515397111854 1 1 -1
430 1 15.369479721171336 1.1238637187629843 8.098053464531304 1 1 -1
23 2 16.61980518532501 3.3698826616927784 6.384813695561787 -1 0 2
280 1 15.160437295307322 4.219734008967413 5.704466455043546 0 0 -1
22 1 17.101183033558645 2.641615985869569 6.807934903803414 -1 0 2
236 2 14.546567676815545 0.21195864498259456 6.836441238344178 -1 1 1
88 1 10.88861449258407 5.433717820950008 4.919408106856473 -1 1 0
365 2 9.109709972037301 5.653410084239119 4.910082660207614 2 0 1
200 2 12.377965190927606 8.030398175776781 4.9276004886363225 -1 -2 -2
457 1 9.097267079055475 6.2403254859946005 8.629412992799251 0 0 -2
405 2 12.383223909948232 7.258817873796264 7.987193926462189 1 0 -3
123 2 11.126069551296494 5.6362109319997735 8.201824658117598 0 1 1
121 1 11.882763822780666 5.8277843026450356 7.591198142444118 0 1 1
122 2 11.539875243526994 5.816686156936401 6.691743171958111 0 1 1
403 1 12.546120284430046 8.220999077247775 8.394444235730845 1 0 -3
155 2 14.763414216048107 5.2146178076376515 8.782566709646522 -1 2 -1
154 1 14.226011377301315 4.689858031606064 8.082506458301781 -1 2 -1
156 2 13.377801956719312 5.173805830277798 7.967067035509329 -1 2 -1
282 2 15.399160256417014 4.960163053953869 5.145015256964959 0 0 -1
281 2 14.83666260574947 4.627861082211313 6.513759217312384 0 0 -1
244 1 13.417469920812376 6.8846010580253525 5.54474733006164 0 1 2
245 2 13.524546527842821 6.254891319829848 4.788529537074916 0 1 2
246 2 14.20249240742593 7.4509151148994786 5.592691609039223 0 1 2
369 2 16.14959478923815 8.430249806274603 5.8230366220268115 0 -1 2
332 2 16.962663314676963 7.426994752911462 7.883663723516261 0 -2 1
331 1 17.15146784563262 7.162168500056164 6.968044402029059 0 -2 1
277 1 10.798334449591062 10.03898183261319 8.706448903049823 1 0 1
279 2 11.313300623603496 10.846410052403229 9.021065777760693 1 0 1
404 2 12.910328810234114 8.782163373614658 7.64771282615868 1 0 -3
479 2 10.412784734981354 10.167064540683393 6.897387099132109 1 0 -1
201 2 11.105160864054152 8.907890340069878 5.141222960724133 -1 -2 -2
478 1 9.864681542518149 9.96418959030921 6.076883808885208 1 0 -1
135 2 13.211064090815167 12.502893457581019 6.441542545408609 0 0 3
133 1 12.727880581035173 13.011750236959735 5.80141759871514 0 0 3
278 2 11.438086193956575 9.34439470704701 8.749555025368089 1 0 1
480 2 9.199974897291128 9.329991368249635 6.478198778541873 1 0 -1
372 2 9.153711837612946 10.298808353853532 9.043728932699183 -2 -3 0
315 2 14.70158653367366 12.5972515176994 8.8010004473123 0 0 -1
313 1 14.421154359516425 11.66424124501613 8.931733423389836 0 0 -1
218 2 14.098630761635114 9.71433804941719 6.120252157974636 -2 0 -1
217 1 13.42684137315373 10.006768087194963 6.730448388800324 -2 0 -1
26 2 17.09654617165079 12.013334281136954 7.427159065658431 1 -1 -3
367 1 15.454217913773036 8.8522276293254 5.305108306213601 0 -1 2
189 2 15.784672414530743 12.692011693719094 5.521753613551714 0 2 -1
219 2 13.886858598611854 10.589657694190496 7.411167872509441 -2 0 -1
187 1 15.573298262214745 12.320114803222289 6.356912432825446 0 2 -1
93 2 9.352117271288241 16.982737464737614 7.340615387093972 2 -1 0
196 1 11.290143025975393 17.034908533281946 5.7056329217548685 -1 -2 1
573 2 11.356381539169117 14.895686864347319 8.084295704175503 -1 -1 1
134 2 12.023573474002072 13.382927506814427 6.322456574438411 0 0 3
197 2 12.232714482824859 16.95688974901881 5.869697234553692 -1 -2 1
572 2 10.979817958543135 15.664691261268212 6.786881080343813 -1 -1 1
571 1 10.747764005802468 14.846054721926546 7.3071566799428656 -1 -1 1
188 2 15.289606021300813 13.104445931945143 6.8895556404927705 0 2 -1
576 2 13.986864911524409 14.1378218654033 5.092433811339277 0 2 3
7 1 14.619967831852158 14.207790760822444 8.22991047719358 2 0 0
575 2 14.481604491693497 15.64489411055723 5.227042767142086 0 2 3
9 2 13.76131821163708 14.5387425632418 8.55798271415343 2 0 0
235 1 14.051140825319523 17.10843292005116 6.089244157345871 -1 0 1
8 2 15.209942778152291 14.82396760097861 8.654239421994726 2 0 0
108 2 15.732473745420867 17.072072016065576 9.01789782115688 0 0 0
493 1 10.999759473564698 4.192062449647297 9.699917444920887 -1 -1 1
494 2 11.790378780409768 3.6302453569554576 9.538138579277428 -1 -1 1
495 2 10.256944466979288 3.5995567356943776 9.612542555681975 -1 -1 1
179 2 10.461305350831521 0.1808995108844359 10.649517716712651 1 0 1
452 2 12.537280285716085 1.4822733394656238 9.782655916005925 0 0 -2
451 1 11.831534590068873 0.9108157204479055 9.443730246016024 0 0 -2
462 2 9.009256491915444 0.6894343373441173 12.712248719753745 0 -1 1