LAMMPS data file via write_data, version 15 Apr 2020, timestep = 1000000

1008 atoms
2 atom types

1.3937731438984358e-01 1.8344022685601239e+01 xlo xhi
1.9692629625346392e-01 2.2220273703740105e+01 ylo yhi
1.8391119550869206e-01 1.9206270804484127e+01 zlo zhi
3.6264189418611051e-02 -6.8081106430817311e+00 -2.8547701726476620e-02 xy xz yz

Masses

1 16
2 2

Atoms # atomic

1 1 1.7019915756081669e+00 3.9739536509738294e+00 2.4005076667003027e+00 0 0 0
2 2 2.3463731948198077e+00 4.7275400362892652e+00 2.7043803142522926e+00 0 0 0
3 2 1.3469776350996641e+00 3.6492330513430211e+00 3.2435780615047998e+00 0 0 0
4 1 3.0683016376508530e+00 5.8038854412876892e+00 3.8236941971596305e+00 0 0 0
5 2 3.7883529299458623e+00 5.5102702822429199e+00 4.3502821829404326e+00 0 0 0
6 2 3.4023086651681353e+00 6.6121701454033364e+00 3.3120531440093508e+00 0 0 0
7 1 3.6395392482065403e-01 5.7303648111810501e+00 6.4858349531195891e-01 0 0 0
8 2 1.7721582938484946e+01 5.2860092192086521e+00 4.2860240453462123e-01 0 0 0
9 2 7.9011622238147927e-01 5.1947572881061577e+00 1.3176618411725747e+00 0 0 0
10 1 9.2894740581729329e-01 3.1581668435864150e+00 4.8461075927859083e+00 0 0 0
11 2 1.0141267052043883e+00 3.7929653368802980e+00 5.5825345475005204e+00 0 0 0
12 2 -1.6440998977712784e-02 2.9378302501191293e+00 4.9927722980927607e+00 0 0 0
13 1 -4.6217075447818914e+00 2.7863081025362550e+00 1.9118263217296871e+01 0 0 -1
14 2 2.1614702402171382e+00 3.3037882192886556e+00 9.5030220869512216e-01 0 0 0
15 2 -3.6961206637263913e+00 2.6542778966965215e+00 1.8932291165453300e+01 0 0 0
16 1 3.5963742374661978e+00 8.1243528312070901e-01 2.1648126657104587e+00 0 0 0
527 2 -3.4061402362300126e+00 3.7555030998353855e-01 1.5875365765926482e+01 0 1 0
18 2 2.6806708062841524e+00 1.1237109146648558e+00 2.3143937773631027e+00 0 0 0
19 1 3.7176882076346141e-01 8.1601847153051676e-01 2.5747669017451185e+00 0 0 0
20 2 -2.6700288771261521e-01 1.5571933193017240e+00 2.5833098345503069e+00 0 0 0
222 2 4.9951839504935558e+00 1.1167372436036434e+01 4.2792787095379952e+00 0 0 0
836 2 1.3609951774781525e+01 1.0974389334705101e+01 1.1256017968043309e+01 0 0 0
24 2 -7.6804323733061897e-01 8.4546963792855223e-01 6.9270921935249881e+00 0 0 0
25 1 -1.4523144901396485e+00 2.3279905535685055e+00 5.8783272760974343e+00 0 0 0
26 2 1.5964911556287550e+01 2.0557439670999984e+00 5.3509074562152863e+00 0 0 0
27 2 -1.8182768295619425e+00 3.0825898654510611e+00 6.3643499486567308e+00 0 0 0
28 1 1.3491273914402373e+00 2.3815071549491873e+00 8.5946998343840466e+00 0 0 0
29 2 2.0643055603396148e+00 2.0247638133764063e+00 9.1162899269578634e+00 0 0 0
30 2 8.7911388956986825e-01 1.6698817739933021e+00 8.1293610192413226e+00 0 0 0
31 1 5.9112789223255846e-01 6.8542644143340885e+00 5.0270160369302133e+00 0 0 0
32 2 1.3553387448990741e+00 6.2733866859574086e+00 4.8628892652123916e+00 0 0 0
33 2 4.4148924966976399e-01 7.5824279610277072e+00 4.3727294943671069e+00 0 0 0
34 1 -7.3699279267623075e-01 6.9954013333381466e+00 9.9304090538773035e+00 0 0 0
35 2 -1.6721953156409803e+00 6.8428690408051249e+00 1.0048992717463330e+01 0 0 0
36 2 -5.5472038460218176e-01 7.3870090366861696e+00 9.0463487612075930e+00 0 0 0
37 1 -1.6368636704447088e+00 4.8439877305797312e+00 7.2736973890592314e+00 0 0 0
38 2 -6.8252919110981947e-01 4.9086788676900923e+00 7.0393990638754227e+00 0 0 0
39 2 -1.6488834334625042e+00 4.4002309741023877e+00 8.1258225625796001e+00 0 0 0
40 1 9.7310861343884936e-01 4.9069106696416398e+00 7.1709772236101346e+00 0 0 0
41 2 1.5750051175800426e+00 5.6903637364467432e+00 7.2691193087456538e+00 0 0 0
42 2 9.8103352811582445e-01 4.2549589105260504e+00 7.8378764918238160e+00 0 0 0
43 1 4.3995122801577446e+00 3.5472805246368329e+00 7.2611666557081094e+00 0 0 0
44 2 4.6923283948026633e+00 3.9656902685557540e+00 6.3822769703521862e+00 0 0 0
45 2 3.5803810128139384e+00 3.0925346085213832e+00 6.9350689446527225e+00 0 0 0
46 1 2.8492834902260897e+00 1.6950585954586563e+00 5.7550124273291861e+00 0 0 0
906 2 2.3650793181738834e+00 4.8220400908146149e-01 1.2934753456368295e+01 0 0 0
48 2 2.0611618809002366e+00 2.1356850981530062e+00 5.2985523105656744e+00 0 0 0
49 1 5.6240113436966208e+00 1.5986353867022229e+00 8.6742718578589084e+00 0 0 0
50 2 5.4727236252486300e+00 2.4065242349638902e+00 8.1242058654135310e+00 0 0 0
51 2 6.3125897048527770e+00 1.9337126859993232e+00 9.2494186836180887e+00 0 0 0
52 1 4.8941536893192836e+00 4.5438266700967613e+00 4.8126878218354818e+00 0 0 0
53 2 5.7749955231975987e+00 5.0073547488918946e+00 4.6010038732743990e+00 0 0 0
54 2 4.8456212221474155e+00 3.7845385735042987e+00 4.2417498202654356e+00 0 0 0
55 1 3.8612816697729015e+00 4.7961681328041541e+00 9.6501086745964813e+00 0 0 0
56 2 2.9567186868631596e+00 5.1706401798123443e+00 9.7372886207300997e+00 0 0 0
57 2 4.0235150514515698e+00 4.4325684852759917e+00 8.7795625876413510e+00 0 0 0
58 1 2.7475369599231056e+00 6.8346900143797118e+00 7.3531928454205850e+00 0 0 0
59 2 3.6975583298532517e+00 6.6052801470348808e+00 7.2112119325282542e+00 0 0 0
60 2 2.8106127542861419e+00 7.2347948649403371e+00 8.2594276525655097e+00 0 0 0
61 1 5.6087782162624276e+00 6.7909435268432823e+00 7.5748227246512760e+00 0 0 0
62 2 5.9166956204009473e+00 7.5012329015287191e+00 8.2007299078586797e+00 0 0 0
63 2 6.3433969306211662e+00 6.1139466741574671e+00 7.5817226578719055e+00 0 0 0
64 1 6.3431583926368305e+00 7.0034743516507350e+00 2.7107386481394711e+00 0 0 0
65 2 6.9123431815944274e+00 6.3339512638308451e+00 3.1800716669971356e+00 0 0 0
66 2 5.9220757721129349e+00 7.4988559651188158e+00 3.4147246989882372e+00 0 0 0
67 1 7.6152868028455600e+00 5.2826403001506623e+00 4.1102153867838034e+00 0 0 0
68 2 7.9326716825652346e+00 4.4518927805146049e+00 3.6848464295596717e+00 0 0 0
69 2 8.4329744870946133e+00 5.8048671378799588e+00 4.3693203713046094e+00 0 0 0
70 1 5.0053298761902232e+00 5.1683124395954092e+00 8.6098692233717211e-01 0 0 0
71 2 5.3905634984775261e+00 5.7312093386989762e+00 1.5280839959016994e+00 0 0 0
72 2 4.3017141353814727e+00 5.7037337873703553e+00 5.2530547956389184e-01 0 0 0
714 2 -2.3526828738496546e+00 1.1063094300934477e+01 1.7579199250872342e+01 0 0 0
248 2 7.6236153667306734e+00 1.0923383129560756e+01 1.7357531166421361e+00 0 0 0
75 2 4.3719041672203884e+00 1.1545242277638712e+00 5.0174689778751658e+00 0 0 0
76 1 6.7681826279735420e+00 1.0628257385384230e+00 3.2447964685115216e-01 0 0 0
830 2 1.1170860055637572e+01 7.4125327631217157e+00 1.4957909003505646e+01 0 0 0
78 2 8.7621886099403934e-01 1.3408086104717194e+00 1.9118188286942964e+01 0 0 0
79 1 7.9378982301563124e+00 3.0196037294909779e+00 2.2863296629840768e+00 0 0 0
80 2 7.8142837656397930e+00 3.4199195722136095e+00 1.4060286546577654e+00 0 0 0
81 2 7.1011369540711771e+00 2.6100289440914950e+00 2.3975701975976178e+00 0 0 0
82 1 5.0777307686260276e+00 3.1363348885975957e+00 2.3898224236113039e+00 0 0 0
83 2 4.8087523350563286e+00 3.7085108596012062e+00 1.6917292761713456e+00 0 0 0
84 2 4.4868166399126101e+00 2.3615086065192576e+00 2.3066181799833112e+00 0 0 0
85 1 1.0864695349697701e+01 4.3856379189206605e+00 2.5176933187521429e+00 0 0 0
86 2 1.1548808038145101e+01 4.9039763414423465e+00 2.9766278222180569e+00 0 0 0
87 2 1.0380085586392749e+01 3.7997405717480031e+00 3.1506579137287241e+00 0 0 0
88 1 1.2028649717420347e+01 6.2462864683723884e+00 4.3505830883629963e+00 0 0 0
89 2 1.2797416957221543e+01 6.1400873466086363e+00 4.9342590057960640e+00 0 0 0
90 2 1.2269438564141122e+01 6.9476280066557763e+00 3.7101755901102762e+00 0 0 0
91 1 9.5048739349673674e+00 6.0296752693112152e+00 8.0648251706999508e-01 0 0 0
92 2 8.7758655077761798e+00 5.5157811128777263e+00 3.8391697587564022e-01 0 0 0
93 2 9.8951030960229787e+00 5.4012751514770461e+00 1.4505421545698243e+00 0 0 0
94 1 9.9428136522855510e+00 2.9812272445775432e+00 4.6774438624705237e+00 0 0 0
95 2 9.9792507179094443e+00 3.7557097218563382e+00 5.2857491106460532e+00 0 0 0
96 2 8.9878414132371418e+00 2.6744033448259428e+00 4.6309228717491040e+00 0 0 0
97 1 4.4219069538117273e+00 3.1914694994269386e+00 1.8989914526371528e+01 0 0 -1
98 2 1.1059557664355809e+01 3.6018130008064380e+00 9.1785676035016783e-01 0 0 0
99 2 5.2176595931441669e+00 2.6489222241761641e+00 1.9045292965366684e+01 0 0 0
100 1 1.2362095952230815e+01 1.0266543743038317e+00 2.4129013088107385e+00 0 0 0
482 2 1.4957338943920899e+01 2.9600396166057785e-01 7.9351572819061849e+00 0 1 0
102 2 1.1414256999800489e+01 9.2966491037600962e-01 2.6752971943735004e+00 0 0 0
103 1 9.7805296599353042e+00 1.0694555661050797e+00 2.3811049395536066e+00 0 0 0
104 2 9.0585063772314065e+00 1.7863729334814051e+00 2.3547291458101620e+00 0 0 0
752 2 4.2290257426147599e+00 1.0757121316262001e+01 1.0876813155996706e+01 0 0 0
335 2 1.3876025638668160e+01 1.1049432699293360e+01 2.1838213690414259e+00 0 0 0
108 2 7.9341786208413136e+00 1.4359610282747299e+00 6.7682607610676175e+00 0 0 0
109 1 7.3256523708164760e+00 2.5974677901408412e+00 5.7190582825950873e+00 0 0 0
110 2 6.4970370418455241e+00 2.1270290606288098e+00 5.5264455761939137e+00 0 0 0
111 2 7.2408372122268423e+00 3.4655710150616623e+00 6.1736334282302368e+00 0 0 0
112 1 1.0195973047121802e+01 2.5240536036581545e+00 8.6786241424950727e+00 0 0 0
113 2 1.0832847519187270e+01 1.9369838275931632e+00 9.1092434137665155e+00 0 0 0
114 2 9.6047985331350247e+00 1.9337863182574129e+00 8.1531478071749000e+00 0 0 0
115 1 9.5622484886949248e+00 6.9822083414274196e+00 4.7723523309119118e+00 0 0 0
116 2 1.0556429814473688e+01 6.6045076268500491e+00 4.6842115155814081e+00 0 0 0
117 2 9.5664675545423510e+00 7.6415303697924370e+00 4.0431534488942802e+00 0 0 0
118 1 8.5767316379831353e+00 6.8277433149959892e+00 9.8174983365357775e+00 0 0 0
119 2 7.6693890710760915e+00 6.4630027121575013e+00 9.9886968575725295e+00 0 0 0
120 2 8.6570574732463328e+00 7.1488229904408005e+00 8.9394004123833799e+00 0 0 0
121 1 7.5215442529545680e+00 4.8082591410770616e+00 7.1202421850406017e+00 0 0 0
122 2 8.5111299011057273e+00 4.9144847847962838e+00 7.1908571109851138e+00 0 0 0
123 2 7.5062850612787404e+00 4.3133330463364379e+00 7.9778423093285173e+00 0 0 0
124 1 1.0198745412991610e+01 4.6572346574852128e+00 6.9474302525259182e+00 0 0 0
125 2 1.0917233461609381e+01 5.3292680446022516e+00 6.9168264071289300e+00 0 0 0
126 2 1.0426602044477281e+01 3.9547682386864325e+00 7.6507073866679072e+00 0 0 0
127 1 1.3384754988508236e+01 3.6617228160952577e+00 7.3829807321827703e+00 0 0 0
128 2 1.3769670301879067e+01 4.2226880442610097e+00 6.6533444717131500e+00 0 0 0
129 2 1.2852392752419796e+01 3.0847717611512433e+00 6.8409631417128240e+00 0 0 0
130 1 1.2138523967882911e+01 1.9080116904942268e+00 5.8087451111856465e+00 0 0 0
74 2 5.3105040688943550e+00 3.8183692203829833e-01 5.7689594690213397e+00 0 0 0
132 2 1.1377775599306258e+01 2.2415306602162102e+00 5.3110364696667629e+00 0 0 0
133 1 1.4617788339609936e+01 1.6552971452515162e+00 8.7575597456930385e+00 0 0 0
134 2 1.4259915076685147e+01 2.4443991696411733e+00 8.2214027864251804e+00 0 0 0
135 2 -2.8138236820881990e+00 2.0349168665630928e+00 9.1530417288722976e+00 0 0 0
136 1 1.4326044058650945e+01 4.9116021845081512e+00 5.1522748715149040e+00 0 0 0
137 2 1.5280796878511403e+01 5.0074849372058026e+00 5.0460296844616908e+00 0 0 0
138 2 1.4063298123919502e+01 4.3832180619796111e+00 4.3902435321038071e+00 0 0 0
139 1 1.2916526542345556e+01 4.4652652546938256e+00 9.7575146007523017e+00 0 0 0
140 2 1.2019199500899791e+01 4.7206255312944538e+00 9.9189285153958355e+00 0 0 0
141 2 1.2948807462781424e+01 4.2954655496805714e+00 8.8031410822439664e+00 0 0 0
142 1 1.2047258690539490e+01 6.8650629824615548e+00 7.3456781513441101e+00 0 0 0
143 2 1.2991010316346223e+01 6.6892142612919949e+00 7.3012156686309417e+00 0 0 0
144 2 1.1905302751778024e+01 7.3522796391431360e+00 8.1581617027913111e+00 0 0 0
145 1 1.4737480538231871e+01 6.8022715626842967e+00 7.3484231338438271e+00 0 0 0
146 2 1.4975676196063187e+01 7.6192943547027614e+00 7.7909934254630411e+00 0 0 0
147 2 1.5479890341595647e+01 6.1577301677479452e+00 7.5467025300547403e+00 0 0 0
148 1 1.5254134766107951e+01 7.1040711392729747e+00 2.5379321520034952e+00 0 0 0
149 2 1.5972220143787343e+01 6.6288990671904600e+00 3.0028100268726847e+00 0 0 0
150 2 1.4823357612863264e+01 7.6211258143239373e+00 3.2786000267712225e+00 0 0 0
151 1 1.6771176597599794e+01 5.3963059006361709e+00 4.1666378823131964e+00 0 0 0
152 2 1.6994145945414591e+01 4.6059610050268232e+00 3.6597270496516572e+00 0 0 0
153 2 -6.6964647392912569e-01 5.7433720942407920e+00 4.6580960051061870e+00 0 0 0
154 1 1.3692117486117498e+01 5.2029141344368242e+00 1.2419011834091755e+00 0 0 0
155 2 1.3992900976321319e+01 5.9566709517274408e+00 1.8209098346823192e+00 0 0 0
156 2 1.2876105993321159e+01 5.5349455903037734e+00 7.9107777386195688e-01 0 0 0
279 2 7.1687489373891653e+00 1.0669816555210399e+01 6.5521824760320548e+00 0 0 0
181 1 1.8239328431118766e+00 1.0043198669051288e+01 3.0268963289603862e-01 0 0 0
159 2 1.3661653275348685e+01 1.2697697233801488e+00 5.3092485432044176e+00 0 0 0
160 1 1.5999334091947583e+01 9.0671206976409946e-01 3.1466848734217223e-01 0 0 0
73 1 5.2684585878422681e+00 8.5181066149901585e-01 4.9023013682803045e+00 0 0 0
162 2 1.0123719408690313e+01 9.8354867712258753e-01 1.9103076101955871e+01 0 0 0
163 1 1.6719316139014055e+01 3.1849231909824289e+00 2.6563253422799855e+00 0 0 0
164 2 1.6744686916427604e+01 3.6800591681580781e+00 1.8147600723799309e+00 0 0 0
165 2 1.5757494964824897e+01 2.9574951376914744e+00 2.8008738764253280e+00 0 0 0
166 1 1.4043453966711782e+01 3.1841519315772002e+00 2.7853217017299499e+00 0 0 0
167 2 1.3835285377592790e+01 3.7127249426243933e+00 1.9981760168026048e+00 0 0 0
168 2 1.3537142992650686e+01 2.3671154277359157e+00 2.8172201506354391e+00 0 0 0
262 1 9.8539416648353040e+00 1.0476275050765246e+01 4.8048294666442750e+00 0 0 0
178 1 7.5145938224886955e-01 1.0600240939718036e+01 5.0796715065938036e+00 0 0 0
211 1 4.3430503481582452e+00 1.0467197001620537e+01 7.4859888630251330e+00 0 0 0
180 2 -2.0375969852451448e-01 1.0129385885570885e+01 5.0746741944407736e+00 0 0 0
577 1 1.9127073180581373e+00 1.0264850263706582e+00 1.4587988987264229e+01 0 0 0
661 1 1.0969675512281359e+01 5.9563304024846886e-01 1.4622437282751223e+01 0 0 0
183 2 -4.0845538074214591e+00 9.6484243007740211e+00 1.9194185265921366e+01 0 0 0
184 1 3.2263473316411933e+00 8.0642164827923928e+00 2.3320448246464771e+00 0 0 0
185 2 3.0615210202655811e+00 7.7823286085344625e+00 1.4280407593986546e+00 0 0 0
186 2 2.3196626157497282e+00 8.2393172315044723e+00 2.7081011518143012e+00 0 0 0
187 1 2.5981198855706078e-01 8.2809280530754883e+00 2.6547294122214793e+00 0 0 0
188 2 -4.0285991022002254e-01 9.0043768572057701e+00 2.6069820170876703e+00 0 0 0
189 2 7.2077514390919806e-02 7.6300835168875478e+00 1.9917647439411408e+00 0 0 0
190 1 2.5285152850443193e-02 7.8778617109335389e+00 7.3434535342566774e+00 0 0 0
191 2 2.7233160177367743e-01 7.2677940279604520e+00 6.5688545819208013e+00 0 0 0
192 2 -5.3439261766139334e-01 8.5021836329319456e+00 6.8763468359504909e+00 0 0 0
193 1 -1.6131134973519581e+00 9.5807115333845196e+00 5.6471861498529492e+00 0 0 0
194 2 1.5806911803430779e+01 9.0849035361838446e+00 5.3966020701314372e+00 0 0 0
195 2 -1.9091897704711540e+00 1.0393885751840985e+01 6.1042750902066869e+00 0 0 0
196 1 1.2521950038887759e+00 9.8863561701499947e+00 8.9233763641829356e+00 0 0 0
197 2 1.9668258006109172e+00 9.6338333718461868e+00 9.5421348061450253e+00 0 0 0
198 2 1.1031139630952795e+00 8.9688228068664042e+00 8.5390333442143884e+00 0 0 0
17 2 3.4649604165073802e+00 3.3315220998182704e-01 1.3081390787563516e+00 0 0 0
213 2 3.7165084302015021e+00 9.9594566352348242e+00 6.8490617501273130e+00 0 0 0
214 1 2.8998441685377041e+00 9.1556397783943453e+00 5.8022121433196396e+00 0 0 0
215 2 2.5889197313985459e+00 8.3829490676762592e+00 6.3289029011412437e+00 0 0 0
216 2 2.0568777562205121e+00 9.6396207390849256e+00 5.5826360468673517e+00 0 0 0
217 1 5.7059048745957055e+00 8.9104716612565280e+00 9.1878474231633529e+00 0 0 0
218 2 5.3720134489146325e+00 9.5613448027497352e+00 8.4884503548007295e+00 0 0 0
219 2 6.4697889566750941e+00 9.3893390804563417e+00 9.6236956302787870e+00 0 0 0
241 1 5.3594706447852438e+00 8.1778316682893113e+00 5.2484226271589804e+00 0 0 0
242 2 5.3025654677445555e+00 7.7805645633046607e+00 6.1294284270861370e+00 0 0 0
243 2 4.4571092801048477e+00 8.4705458329168781e+00 5.0570018408387520e+00 0 0 0
244 1 6.6593473249648900e+00 8.2532319662282170e+00 2.7803746460837298e-01 0 0 0
245 2 6.5511670766385723e+00 7.7723852281452679e+00 1.1222819094881100e+00 0 0 0
246 2 7.6157608538977479e+00 8.4941453044965893e+00 2.4026683319533607e-01 0 0 1
247 1 7.5442372647149645e+00 1.0317467226445245e+01 2.5277495578987428e+00 0 0 0
521 2 -2.7691953545728376e-01 7.0217689273608253e-01 1.0869562561377162e+01 0 0 0
249 2 6.5853225288483408e+00 1.0154344787176733e+01 2.6601862882930565e+00 0 0 0
250 1 4.6939380207043673e+00 1.0290058438755239e+01 2.8046587890274313e+00 0 0 0
804 2 7.9169695946417651e+00 9.3943523704887362e+00 1.4815658956822906e+01 0 0 0
252 2 4.0693035959286821e+00 9.5259857224348465e+00 2.7670442913512945e+00 0 0 0
832 1 1.2105047154785172e+01 8.5096518517134498e+00 9.7223831325214913e+00 0 0 0
686 2 -1.3741277127820188e+00 1.0978164428995925e+01 1.0815671617071896e+01 0 0 0
77 2 6.7917512729749490e+00 6.0354574038159869e-01 1.2052774220698859e+00 0 0 0
264 2 9.0296613920018807e+00 1.0035765384096834e+01 5.0209085586573616e+00 0 0 0
265 1 4.5021431782440748e+00 1.0596599665264526e+01 1.9088400271795759e+01 0 0 -1
580 1 3.2567004302756759e+00 8.8270546175843334e-01 9.6893860458548886e+00 0 0 0
267 2 5.4294575110493630e+00 1.0228458203541253e+01 1.8890220461530731e+01 0 0 0
268 1 1.2248647942581073e+01 8.4262873285695541e+00 2.5059267005617194e+00 0 0 0
269 2 1.2168889136571236e+01 7.9301897451368832e+00 1.6333583675350805e+00 0 0 0
270 2 1.1326319574115093e+01 8.7230450348019186e+00 2.5641701861818631e+00 0 0 0
271 1 9.6162705910884476e+00 8.6538871606239098e+00 2.4234951675656604e+00 0 0 0
272 2 8.7977481776301847e+00 9.2245255719077317e+00 2.3760867383841768e+00 0 0 0
273 2 9.5118163232641599e+00 7.9202138203168992e+00 1.8214489375639398e+00 0 0 0
274 1 9.1723204166303240e+00 8.1372779059772675e+00 7.2719209723400784e+00 0 0 0
275 2 9.3389566743014694e+00 7.4408333684538421e+00 6.6348786644480153e+00 0 0 0
276 2 8.4743345318184158e+00 8.7174722576635908e+00 6.8687304298848133e+00 0 0 0
277 1 7.4024526279874951e+00 9.8333306747521352e+00 6.0528715046737425e+00 0 0 0
278 2 6.5829249257060702e+00 9.4814686303726230e+00 5.6312907005465567e+00 0 0 0
610 1 5.5924127676786544e+00 6.6381692500497225e-01 1.6649673758560265e+01 0 0 0
280 1 1.0278023079795647e+01 1.0048587329810829e+01 8.5990203363975883e+00 0 0 0
281 2 1.1062617103379882e+01 9.6219312757842168e+00 9.1293622655644153e+00 0 0 0
282 2 9.9474366146186135e+00 9.2491885238780753e+00 8.0943259208691920e+00 0 0 0
799 1 1.0130200659700247e+01 1.0662829690970568e+01 1.6890605343232426e+01 0 0 0
297 2 1.3067301365209573e+01 1.0084718630963575e+01 6.7844258381469791e+00 0 0 0
298 1 1.2225318866030328e+01 9.1694831572712481e+00 5.8060601163710750e+00 0 0 0
299 2 1.1853890765037107e+01 8.3584782219398281e+00 6.3137277676383095e+00 0 0 0
300 2 1.1449774437955247e+01 9.5904281180258462e+00 5.4133358760008354e+00 0 0 0
301 1 1.5074147096702015e+01 8.8361627407403081e+00 8.8769203900243827e+00 0 0 0
302 2 1.4564497467808430e+01 9.4580803601822829e+00 8.2201897249877423e+00 0 0 0
303 2 -2.5887708368555948e+00 9.4685661334740860e+00 9.4536061074591746e+00 0 0 0
325 1 1.4491199300235008e+01 8.0133056643661469e+00 5.0239720231440330e+00 0 0 0
326 2 1.4642295043291304e+01 7.3318940680699507e+00 5.7847798039520670e+00 0 0 0
327 2 1.3703448926459394e+01 8.4386344862806180e+00 5.3539684710972795e+00 0 0 0
328 1 1.5544249021493703e+01 8.3320877375149607e+00 2.6102820123963522e-01 0 0 0
329 2 1.5441829371361511e+01 8.0101318524076639e+00 1.2023216378857196e+00 0 0 0
330 2 9.6659487993000877e+00 8.5680183338167328e+00 1.9042891573420818e+01 0 0 0
331 1 1.6765240414951311e+01 1.0239794039631201e+01 2.2371498719200256e+00 0 0 0
829 1 1.1022142360149328e+01 8.1194111854448252e+00 1.4257509971231739e+01 0 0 0
333 2 1.5804994591993148e+01 1.0179881473600371e+01 2.4929650586940459e+00 0 0 0
334 1 1.4190920020223841e+01 1.0413856209283248e+01 2.8368678500173696e+00 0 0 0
526 1 -3.5804635788025503e+00 8.2514472179062037e-01 1.6767337404576413e+01 0 0 0
336 2 1.3599717884269023e+01 9.6825364101551497e+00 2.7680101372878734e+00 0 0 0
266 2 1.1208750675114942e+01 1.0814498953585225e+01 1.0407653197266697e+00 0 0 0
835 1 1.3668155823948251e+01 1.0339541853043880e+01 1.2025856348131303e+01 0 0 0
505 1 -1.7416580118959346e+00 4.2549002808309417e+00 1.2062567652285990e+01 0 0 0
506 2 -9.0720637057951858e-01 4.5961424079238160e+00 1.2425703010755418e+01 0 0 0
507 2 -2.2664791523238987e+00 3.8015635387033444e+00 1.2832305908429435e+01 0 0 0
508 1 -2.2081124446927181e-01 6.1389647739701116e+00 1.3661254863745027e+01 0 0 0
509 2 5.7598594120357482e-01 5.7540701657583577e+00 1.4143288276481035e+01 0 0 0
510 2 -5.5828116172662590e-05 7.0301244157342069e+00 1.3253026410870641e+01 0 0 0
511 1 -3.2053880768042791e+00 6.2870264128126720e+00 1.0608986523980180e+01 0 0 0
512 2 1.4266929180110948e+01 5.8858386895664765e+00 1.0193644073516536e+01 0 0 0
513 2 -2.7229685642853623e+00 5.5194679533541793e+00 1.1028336586100584e+01 0 0 0
514 1 -2.7257788528654379e+00 3.1498403551504155e+00 1.4280458348683144e+01 0 0 0
515 2 -2.5350340423852740e+00 3.7884788952404529e+00 1.5021808633230581e+01 0 0 0
516 2 -3.6483223078871427e+00 2.9456149053504967e+00 1.4456465047409074e+01 0 0 0
517 1 -1.3226881776843291e+00 3.1562956416040113e+00 9.5080267222276849e+00 0 0 0
518 2 -1.2669846128937308e+00 3.6056102366507554e+00 1.0358290282613826e+01 0 0 0
519 2 -4.5650936931046493e-01 2.6620938593882255e+00 9.4722684425043777e+00 0 0 0
520 1 -1.7159439583604863e-01 1.2608078195630994e+00 1.1696781267777347e+01 0 0 0
685 1 -1.2814286082670101e+00 1.0687616453460926e+01 9.8815073967015259e+00 0 0 0
522 2 -1.1040058973122622e+00 1.5284392342163402e+00 1.1933368862768356e+01 0 0 0
523 1 -2.9321690866271108e+00 1.2178391510300086e+00 1.2067628580137464e+01 0 0 0
524 2 -3.6645236659842237e+00 1.8538502836150501e+00 1.1902092921886556e+01 0 0 0
831 2 1.0177908083369047e+01 8.5628274048500916e+00 1.4376505547269808e+01 0 0 0
182 2 1.8885874176592403e+00 1.0558678660821588e+01 1.1360592350467993e+00 0 0 0
528 2 -4.1938287140963864e+00 1.4797470256306244e+00 1.6372754532852262e+01 0 0 0
529 1 -5.2092500376347166e+00 2.1273025188234751e+00 1.5198966345894489e+01 0 0 0
530 2 1.2170775796530766e+01 1.6304968676082368e+00 1.5080662755852284e+01 0 0 0
531 2 -5.3344691766525010e+00 2.9672538885215336e+00 1.5725148814514828e+01 0 0 0
532 1 -2.0519203751244648e+00 2.3543589178834008e+00 1.8249101744333458e+01 0 0 0
533 2 -1.2478796758016308e+00 2.0007403405152075e+00 1.8706204400715233e+01 0 0 0
534 2 -2.3706202592739753e+00 1.6206985563107743e+00 1.7676078094337559e+01 0 0 0
535 1 -2.6117883483072655e+00 6.7245688435097666e+00 1.4595156304365663e+01 0 0 0
536 2 -1.6480925900156063e+00 6.4238790340410938e+00 1.4484839107743658e+01 0 0 0
537 2 -2.8703504754831517e+00 7.2167049128203447e+00 1.3788177250134551e+01 0 0 0
538 1 -3.9778100908874663e+00 6.6377175753854472e+00 1.9054764138268713e+01 0 0 0
539 2 -4.8858466810154866e+00 6.3366095392448392e+00 1.9055786043043131e+01 0 0 -1
540 2 -3.7760873367539669e+00 6.8323874220112693e+00 1.8044624894074950e+01 0 0 0
541 1 -5.0343661736669061e+00 4.2702451252189864e+00 1.6753747507323041e+01 0 0 0
542 2 -4.0711567035984277e+00 4.4176373208805106e+00 1.6616342908414257e+01 0 0 0
543 2 -4.9724616395106764e+00 3.7952284949862305e+00 1.7628349026942054e+01 0 0 0
544 1 -2.2905212244458379e+00 4.5187671536231697e+00 1.6626922139218593e+01 0 0 0
545 2 -1.7633921744557757e+00 5.3604673088125780e+00 1.6678115726421478e+01 0 0 0
546 2 -1.9081217739463270e+00 3.9714686140172630e+00 1.7363635969516025e+01 0 0 0
547 1 6.4824063883328442e-01 3.4725940591229336e+00 1.6508426517707882e+01 0 0 0
548 2 1.1185757678629056e+00 4.1429034400361981e+00 1.5917827659354256e+01 0 0 0
549 2 1.0690129020524353e-01 2.8858602473101995e+00 1.5930577816841149e+01 0 0 0
550 1 -7.7405759785657047e-01 1.6093710159984722e+00 1.4986606882444642e+01 0 0 0
726 2 1.5593555589756773e+00 1.1151564010244259e+01 1.3663141745233215e+01 0 0 0
552 2 -1.6206064833189995e+00 1.9538347121822275e+00 1.4638962901330341e+01 0 0 0
553 1 2.3958320965627538e+00 1.6582632189631430e+00 1.8033209477775376e+01 0 0 0
554 2 2.0834185281503821e+00 2.2694604656209720e+00 1.7368437877676815e+01 0 0 0
555 2 2.9563033822667171e+00 2.2627398742658613e+00 1.8615874815070487e+01 0 0 0
556 1 1.9346973128807106e+00 4.7994322170329902e+00 1.4552140645065830e+01 0 0 0
557 2 2.8863545706495675e+00 4.9916953570169760e+00 1.4329898125363448e+01 0 0 0
558 2 1.7284221778943767e+00 4.0771084019159192e+00 1.3950669044632535e+01 0 0 0
559 1 6.9926530245150964e-01 4.4293058574271331e+00 1.8838442278152463e+01 0 0 0
560 2 -1.3414664186446501e-01 4.8967829120387352e+00 1.9045387722014080e+01 0 0 -1
561 2 5.8308580174615177e-01 4.0154286632215968e+00 1.7962607865723147e+01 0 0 0
562 1 -5.4626311776302394e-01 6.7337003748400042e+00 1.6946838680609783e+01 0 0 0
563 2 4.3188672853779853e-01 6.5901532491039125e+00 1.6886840052198142e+01 0 0 0
564 2 -6.4428606378946096e-01 7.0282626604168357e+00 1.7854254461017931e+01 0 0 0
565 1 2.0350567873378624e+00 6.7781840049640172e+00 1.6796009365428823e+01 0 0 0
566 2 2.3736971006972860e+00 7.4395371957560128e+00 1.7384311761477147e+01 0 0 0
567 2 2.6551940626194606e+00 6.0122133842882306e+00 1.6935988721884371e+01 0 0 0
568 1 2.9515602410100366e+00 7.2914361496366036e+00 1.2103633746098556e+01 0 0 0
569 2 3.4689526037596261e+00 6.6156983824809510e+00 1.2554467570908042e+01 0 0 0
570 2 2.5041161344826497e+00 7.7427945179516628e+00 1.2844397489766935e+01 0 0 0
571 1 4.3191410784488360e+00 5.0959201594678065e+00 1.3110440557832758e+01 0 0 0
572 2 4.3989876956551779e+00 4.2386024336739503e+00 1.2577319748409215e+01 0 0 0
573 2 5.1374507974908985e+00 5.3801633333757426e+00 1.3475115981666585e+01 0 0 0
574 1 1.4455770959804570e+00 5.4944408695729861e+00 1.0704556775323660e+01 0 0 0
575 2 1.8631017485986350e+00 6.1305096325816093e+00 1.1408006120879596e+01 0 0 0
576 2 6.4210667090981222e-01 6.0153830104232409e+00 1.0336748128632035e+01 0 0 0
873 2 -3.1029633043526470e+00 5.2481872105692851e-01 1.3522230982672141e+01 0 1 0
840 2 1.0007734683184255e+01 1.0051277544583170e+01 1.2055005803847056e+01 0 0 0
579 2 9.6827420638459660e-01 1.1243551711518811e+00 1.4484123981538529e+01 0 0 0
332 2 1.6691230213284001e+01 1.0799009451390685e+01 1.4125169998382732e+00 0 0 0
806 2 1.0842293125183595e+01 9.4964498961724573e+00 1.7795616956731731e+01 0 0 0
582 2 4.2066599183420141e+00 1.2236402817328216e+00 9.5649448926349923e+00 0 0 0
583 1 4.3135701460506377e+00 2.8547375176871395e+00 1.1378242224027284e+01 0 0 0
584 2 4.0897045819797944e+00 3.5134091287087768e+00 1.0719249760151598e+01 0 0 0
585 2 3.5239246311600354e+00 2.8600083432394836e+00 1.1919435058377056e+01 0 0 0
586 1 1.7498071777565141e+00 3.2967057004311386e+00 1.2346973191171784e+01 0 0 0
587 2 1.5430072002979323e+00 4.0284119642097673e+00 1.1750615349256760e+01 0 0 0
588 2 1.0583783939105631e+00 2.6029215610639769e+00 1.2190800408277118e+01 0 0 0
589 1 7.4067700413754016e+00 4.3312335576734275e+00 1.2078693933721524e+01 0 0 0
590 2 7.9588917855576655e+00 4.9413683647810629e+00 1.2675507584601034e+01 0 0 0
591 2 6.9704256201708130e+00 3.7313156756515764e+00 1.2704971803793503e+01 0 0 0
592 1 8.6709961836812059e+00 6.0907371368389658e+00 1.3721322822327949e+01 0 0 0
593 2 9.4933032793581305e+00 5.6747827280596503e+00 1.4125304932078059e+01 0 0 0
594 2 8.9990555193804909e+00 6.9169641987461503e+00 1.3259688110412066e+01 0 0 0
595 1 6.1008395841028182e+00 6.2047564968730731e+00 1.0545598176739011e+01 0 0 0
596 2 5.3885672232360600e+00 5.8662546014771593e+00 1.0039556272809415e+01 0 0 0
597 2 6.4208249716919310e+00 5.4767906611844559e+00 1.1167016716689846e+01 0 0 0
598 1 6.3762169643030990e+00 3.1822791116025266e+00 1.4149546551803557e+01 0 0 0
599 2 6.3703539764328152e+00 3.7679370721953691e+00 1.4901149808216273e+01 0 0 0
600 2 5.4605559568438355e+00 2.7909855891751714e+00 1.4285691795357975e+01 0 0 0
601 1 7.6552226555964520e+00 3.2327203895203902e+00 9.5619693056936121e+00 0 0 0
602 2 7.5119585775607813e+00 3.6215317699844669e+00 1.0440556382797714e+01 0 0 0
603 2 8.5699999403525879e+00 2.9171729524054046e+00 9.4497755975416116e+00 0 0 0
604 1 8.6345233056129445e+00 7.8756814235016503e-01 1.2424644154925506e+01 0 0 0
805 1 1.1109580427451711e+01 8.7756115110015926e+00 1.8384116606141259e+01 0 0 0
606 2 7.6614387481454083e+00 1.0156226983145595e+00 1.2245938868829006e+01 0 0 0
607 1 6.0279982791323965e+00 9.2150002509511730e-01 1.2197815742545203e+01 0 0 0
608 2 5.4961899233713369e+00 1.7381013029653820e+00 1.1910676228429608e+01 0 0 0
581 2 3.1890327714597855e+00 5.4825209994536472e-01 1.0563498377237709e+01 0 0 0
106 1 8.7325270770362842e+00 9.3506395223743310e-01 7.2127936302157121e+00 0 0 0
612 2 4.9400232640144344e+00 1.3709527787686615e+00 1.6474391710001477e+01 0 0 0
613 1 3.9568381954746128e+00 2.3841257055871803e+00 1.4927270945247434e+01 0 0 0
614 2 3.0633729181278877e+00 1.9591546243526119e+00 1.4718463108513435e+01 0 0 0
615 2 3.7098557523051543e+00 3.1762642942688961e+00 1.5466352801937468e+01 0 0 0
616 1 6.8707480341902372e+00 2.2060484805823091e+00 1.8316814394257602e+01 0 0 0
617 2 7.7463750966130061e+00 2.1080199987433597e+00 1.8762366740805025e+01 0 0 0
618 2 6.8183977426314364e+00 1.5625806291875899e+00 1.7583770294131433e+01 0 0 0
619 1 6.1729036495976608e+00 6.6803266703102375e+00 1.4320396509331870e+01 0 0 0
620 2 7.1684074379532401e+00 6.4720730492531038e+00 1.4220429382813132e+01 0 0 0