LAMMPS data file via write_data, version 15 Apr 2020, timestep = 0

1944 atoms
2 atom types

-2.2830619840874178e-01 4.0210411198406170e+01 xlo xhi
0.0000000000000000e+00 1.9718964052610762e+01 ylo yhi
0.0000000000000000e+00 2.0372537458427374e+01 zlo zhi
-4.6915523820906913e-02 -1.0342325406320185e-02 1.7034721628011340e-02 xy xz yz

Masses

1 16
2 2

Atoms # atomic

10 1 2.0652133390402472e-01 1.9439318457033476e+01 2.0412978084963571e+00 0 -1 0
1160 2 1.3173438298571400e+01 1.4935647314593599e+01 7.9798631906633686e+00 0 0 0
1111 1 1.0214139946303419e+01 1.1335439932163226e+01 9.7565235304450528e+00 0 0 0
905 2 9.7492728661500170e+00 1.9384246027948617e+00 4.9822022595643816e+00 0 0 0
74 2 1.8527511261442150e+01 8.6877997504074891e+00 5.8199335150358946e+00 0 0 0
88 1 1.9893799499011322e+01 1.1521890228713781e+01 5.8646425655092775e+00 0 0 0
228 2 8.5893154783346137e-01 1.2242198622101919e+01 1.1761732831205509e+00 0 0 0
1556 2 1.2364002278872686e+01 8.8376979082192992e+00 2.8591150824669032e-01 0 0 1
226 1 1.3481717478419930e-01 1.2480830839085924e+01 1.8794326183395194e+00 0 0 0
517 1 1.7196799876596103e+01 1.8121810681624776e+01 9.5283269835340541e+00 0 0 0
672 2 1.4380409528862900e+01 1.6630107336995469e+01 8.9163957770600799e+00 0 -1 0
535 1 1.3363260501168549e+01 1.8493675048233804e+01 4.5014946963585558e+00 0 0 0
260 2 7.4836650297122080e+00 6.2909882503381196e+00 7.9314130080735401e+00 0 0 -1
7 1 -1.0914409390155386e-01 1.2523687219186149e+01 8.7991299340638900e+00 0 -1 0
669 2 -6.0155777303723956e-02 1.7489831917243020e+01 4.6508728150190173e+00 0 0 0
1824 2 1.1773677846874106e+01 9.2927745876141454e+00 4.1456575135714271e+00 0 0 1
1135 1 5.6579283875320288e+00 1.4763260975958330e+01 3.8814009190154830e+00 0 1 0
933 2 1.5900320137852940e+01 8.7375673198346018e+00 5.1396937624222900e+00 0 0 0
1804 1 9.4085496166675000e+00 1.6030275817748464e+01 4.0172325123643837e+00 0 0 1
698 2 1.2284067731815146e+01 9.9083467261038394e-01 8.9721047927316844e-01 0 1 1
1559 2 1.0038065616767314e+01 1.3976785439795718e+00 3.1019906030520148e+00 0 1 1
741 2 1.3820597947908626e+01 1.6203700436581844e+01 2.5924383859038787e+00 0 0 1
1749 2 1.8755915865367456e-03 1.0589385758704720e+01 4.4866259840012273e+00 0 0 1
467 2 1.2106479992493762e+01 3.8826744546396492e+00 2.8614266722029114e+00 0 1 0
294 2 1.4717469099257407e+01 1.9675887711545222e+01 8.6987996096161577e+00 0 -1 -1
75 2 1.7709656297388307e+01 9.2505341981480260e+00 6.9764810075817874e+00 0 0 0
1323 2 1.6102243606573146e+00 1.7011072916299796e+01 6.3780656694023197e+00 0 0 0
1158 2 7.9838589483475459e+00 7.1846979181157149e+00 4.1864032807333924e+00 0 0 0
1812 2 1.9281714299328510e+01 9.8467248057643157e+00 1.6685547272806212e+00 0 0 1
21 2 8.9043526294825315e-02 8.1609036860836905e+00 5.0684652157078736e+00 0 0 0
237 2 9.7525914530942135e+00 1.3078728444856747e+01 9.5725202414012074e+00 0 0 0
1600 1 1.5454718312253224e+01 1.0590703757665494e+01 5.5483434827410816e-01 0 1 1
1786 1 7.0983449080224945e+00 1.6260348342776882e+00 5.8258308788915283e+00 0 1 1
1822 1 1.0989607850409346e+01 9.0027111852855217e+00 3.6224790785587899e+00 0 0 1
679 1 -2.4583788062185161e-01 8.9210101878954617e+00 9.3527097617467820e+00 0 0 0
901 1 1.3960777745148608e+01 6.9957206912390788e+00 2.2698607804385289e+00 0 1 0
1107 2 2.5730482082488426e+00 6.4245351410789064e+00 2.0519751030948649e-01 0 1 1
1325 2 6.9062799160397583e+00 4.5376149513738850e+00 9.1400863629524309e+00 0 0 0
12 2 3.5615633570569205e-01 1.8878613427417097e+01 2.8523505764832486e+00 0 -1 0
1162 1 9.8866270695960381e+00 6.6092864967219676e+00 4.3593784949531331e+00 0 1 1
1098 2 3.4534120874514445e+00 1.3230045718892921e+01 7.5219097414168186e+00 0 1 0
966 2 8.7893905919486954e+00 1.9118700131945133e+01 7.5442880305860429e+00 0 0 0
906 2 9.5955107410278568e+00 2.0759489207941719e+00 6.5846459907805679e+00 0 0 0
244 1 1.1464530083687206e+01 3.4106096527788060e-01 2.6106764611303968e+00 0 1 0
713 2 3.7630387811395556e+00 4.1122317393044785e+00 3.1065287046800694e+00 0 0 1
1543 1 3.2045572973839165e+00 1.3864470568186178e+01 2.8421377038489881e+00 0 0 0
1394 2 1.8953886902835439e+01 3.9410246989719155e+00 5.0717710983013742e+00 0 0 0
1545 2 3.7076723517068877e+00 1.4484000913017987e+01 3.3668244120040285e+00 1 0 0
47 2 1.5684446534124417e+00 1.2255959075029956e+01 7.8865292840839682e+00 0 -1 0
492 2 8.1869213064495963e+00 1.5095219145079627e+01 9.7381781800200589e+00 0 0 0
1317 2 1.7839613772272017e-01 1.5720512371381087e+01 9.3128605779077667e+00 0 -1 0
650 2 9.1270391051309847e+00 1.4033887444781723e+01 7.6895947313629680e+00 0 -1 0
898 1 8.6380524826619958e+00 1.9409039885026726e+01 4.4004620943266781e+00 0 -1 0
1396 1 1.8008673261696540e+01 1.2638962800736195e+01 8.4697171504035378e+00 0 -1 1
685 1 7.7557263270751493e+00 1.5118559510680525e+01 2.0885533555658706e+00 0 0 0
100 1 1.6111220665027499e+01 1.8997919843054817e+01 5.2301391452503889e+00 0 -1 0
486 2 6.5512874028937169e+00 1.0783779838739999e+01 2.0848580449330680e+00 0 0 0
1561 1 7.1817586800596722e-01 1.2447887830432209e+00 5.1697877471629345e+00 0 1 0
236 2 1.0307397794669868e+01 1.4494613990727933e+01 9.2060829168776248e+00 0 0 0
1560 2 8.5214293210727394e+00 1.6606296344987783e+00 3.0475268966133440e+00 0 1 1
443 2 5.0939421006191887e+00 3.8835092845132331e+00 6.5167462702007901e+00 0 1 0
1173 2 1.0836811534847731e+01 7.2273913301596870e+00 7.6814970781807022e+00 0 0 0
505 1 7.4306095538310872e+00 1.8298786889612700e+01 1.0073822973432506e+01 0 -1 0
1100 2 1.4776644161342437e+01 3.4090370959915641e+00 7.9225549601473393e+00 0 0 0
712 1 3.4294726024508644e+00 3.7941431315645366e+00 3.9404208014672268e+00 0 0 1
972 2 1.9501682820267852e+01 1.3155602780746769e+01 5.1504838915019739e+00 0 0 0
1093 1 1.7118321745834642e+01 7.0782227979132593e+00 8.8266655696637031e+00 0 2 0
469 1 1.3489058200369946e+01 1.6955436481603879e+01 7.4134464050641764e+00 0 0 -1
1140 2 1.3559215821493066e+01 1.8987843352823777e+00 3.3023284001781694e+00 0 0 1
1537 1 -1.1690417561554094e-01 1.5300403802242172e+01 2.1537708375140263e+00 0 0 1
344 2 1.9953324681266761e+01 1.2015662106592425e+01 1.6165733531807509e+00 0 0 0
1313 2 7.0607216755829416e-01 5.2562929496992830e+00 3.1268837575715813e+00 0 0 1
721 1 8.2736072860995815e+00 1.2803864143018062e+01 3.8184777167944928e-01 0 0 0
914 2 1.8084493612366664e+01 1.9363324230245979e+01 6.8663801006234193e-01 0 0 0
477 2 5.8832302035466775e+00 1.8328776858695306e+01 3.7233821435061754e+00 0 0 1
1084 1 4.0562140095752914e+00 1.6410451147327862e+01 8.2588164365687220e+00 0 0 0
725 2 1.6475829783793646e+01 1.9533419913929784e+01 9.9098139196303450e+00 0 -1 0
49 1 1.3909439404284869e+01 1.0468121474287976e+01 2.7694636574307494e+00 0 -1 0
268 1 1.9053448763170831e+01 1.6830761176984797e+01 4.9131204054179944e+00 0 0 0
1371 2 1.0834269995084270e+01 5.0835509131548768e+00 7.6858352443521856e+00 0 0 1
737 2 1.3165039648702052e+01 1.1628158827006251e+01 1.0016869562377975e+01 0 0 0
1137 2 6.2742372245874414e+00 1.4642241067721313e+01 3.0981046400783052e+00 0 1 0
103 1 1.6443399939775851e+01 8.0953994676871641e+00 1.9322349832527048e+00 0 0 0
885 2 1.2033765188653208e+01 1.6296468706709306e+00 6.2378728407484489e+00 1 0 0
1369 1 1.1048490652255493e+01 5.4846554971104533e+00 8.5552347975437133e+00 0 0 1
1610 2 4.2831707221393263e+00 1.9015592173003061e+01 8.6397395703099900e+00 0 0 1
478 1 1.5053343100855537e+01 1.4221715208256137e+01 5.5084494151149705e+00 0 0 -1
1349 2 8.7740672914673663e+00 1.3238195034047063e+01 5.0535480796292775e+00 0 0 0
1314 2 7.1133124199707021e-01 3.7644774281592492e+00 3.3326957254525080e+00 0 0 1
437 2 1.0635357781287846e+01 1.2701530687205754e+01 7.1765630271704053e+00 0 0 0
14 2 8.3595600394218792e+00 1.1116927334269560e+00 7.2375267549414257e-01 0 0 0
11 2 7.3387891215994205e-01 1.9040022041531298e+01 1.3244440055757574e+00 0 -1 0
1322 2 1.2200220774971702e+00 1.5823805043956897e+01 7.2088859265893692e+00 0 0 1
1594 1 1.0613826556386998e+01 3.2174902470583591e-02 7.9876291709225438e+00 0 1 0
258 2 3.8006407227969596e+00 8.3461107063308155e+00 4.2334900613967203e+00 0 0 1
537 2 1.3487617961407166e+01 1.7655104035765916e+01 4.0239517200370907e+00 0 0 0
1573 1 8.0521204349305879e+00 5.4026011516443448e+00 9.1740489548011006e-02 0 0 2
714 2 2.5756543203127933e+00 4.2747648577210331e+00 4.0555592603959463e+00 0 1 1
464 2 1.3092277686189760e+01 1.6280717918100148e+01 5.4354724431459267e-01 0 -1 -1
1538 2 6.8344615297589406e-01 1.5627196210644275e+01 1.6186319721309061e+00 0 0 0
1300 1 3.7782029251397082e+00 1.1463369808597479e+01 4.3057196418773032e+00 0 0 0
665 2 1.7621851800923223e+00 5.0878079573195185e+00 6.4507081558946400e+00 0 0 0
941 2 1.7760595440623824e+01 3.6637468590196063e+00 1.4057860989524058e+00 0 1 1
1810 1 1.8663917679403696e+01 1.0422287988411348e+01 1.1546114903088451e+00 0 0 1
874 1 6.3210302380515779e+00 2.0244954279436658e+00 2.8861238129495166e+00 0 0 0
217 1 1.4027020848635877e+01 1.0858344448934400e+01 7.0530207242716330e+00 0 0 -1
683 2 2.0561688416776618e+00 1.6776892972802717e+01 3.7114255072003171e+00 0 -1 0
954 2 1.7403487780166479e+01 1.1291932301678342e+01 3.9504051899245805e+00 0 0 1
1099 1 1.4736968449850403e+01 3.2625556911490650e+00 6.9298986707243948e+00 0 1 0
1792 1 8.9679629992753789e+00 4.7110434443339626e+00 2.7497477421526306e+00 0 0 1
1539 2 6.9629609693135475e-02 1.4345053156475423e+01 2.2306595298437757e+00 0 0 0
261 2 6.7797035429679431e+00 6.7722252124632547e+00 9.3240281324115344e+00 0 0 -1
964 1 7.9528768308651934e+00 1.8611650096059371e+01 7.4386937082704936e+00 0 0 0
234 2 8.1016361220573696e+00 9.1012479129210018e+00 8.9423287982508981e+00 0 0 -1
1803 2 1.2036975691021802e+01 8.1643977683577962e+00 9.1405082671873412e+00 0 1 1
1771 1 1.6330529203467268e+01 1.2097599355175774e+01 6.1076138049869320e+00 0 0 0
1814 2 1.0467430792954382e+01 5.2465724443896358e+00 5.6147830200351914e+00 0 1 1
1330 1 8.7410829931396314e+00 9.8851278429611327e+00 5.0704857276712492e+00 0 0 0
269 2 1.9105051041929556e+01 1.5878988666475827e+01 4.6804953838263987e+00 0 0 0
709 1 1.9412852272094757e+01 8.4561352545777635e-01 5.1780534619247707e+00 0 0 0
742 1 1.0678788979691824e+01 1.7559943001012911e+01 2.1461256355435352e+00 0 -1 0
60 2 6.3977580559083191e-01 6.0881792364425413e+00 8.2029133969683894e+00 0 0 -1
1302 2 3.9345445890833917e+00 1.0621440752730969e+01 3.7801828836861953e+00 0 0 0
58 1 -8.4226528421673386e-03 6.2078044960671059e+00 8.9453057606446116e+00 0 0 -1
661 1 3.7889417513018886e-01 2.6054359743520643e+00 2.3043293504937208e+00 0 0 1
1776 2 4.1927101608391801e+00 8.8675843482609495e-01 8.8359488599202141e-01 0 1 1
64 1 1.7927346343745238e+01 1.5560919439432729e+01 7.9850320846634988e+00 0 0 -1
900 2 8.0437038755395651e+00 1.8709586870699603e+01 4.0231676921624162e+00 0 -1 0
1329 2 3.9704795608842725e+00 3.3022425698283850e+00 8.6319792909283670e+00 0 0 0
1809 2 1.7597327714174405e+01 1.6827181063350519e+01 1.9139006289645280e+00 0 0 1
1186 1 4.5695228667996597e+00 1.2708860241040121e+01 6.1576020464789460e-01 0 0 0
1618 1 8.2945221299507228e+00 1.8272740904409921e+00 8.1597807390658712e+00 0 0 0
701 2 8.1030526115703498e+00 4.2402246316804302e+00 4.5128411525395311e+00 0 0 -1
1397 2 1.8962915490340841e+01 1.2825922029985964e+01 8.4432253601360863e+00 0 0 1
1188 2 5.1528408579594434e+00 1.2115889946888617e+01 1.0947433200459515e+00 0 0 0
229 1 1.4247862549301420e+00 1.3930848400453291e+01 5.0165253464268149e+00 0 0 0
1386 2 7.7985562033600928e+00 1.8440360439462776e+01 7.7808186663679768e-01 0 -1 1
470 2 1.3471636017504236e+01 1.7952856004534535e+01 7.6526978823732055e+00 0 0 -1
668 2 2.5366765857161711e-01 1.6644563376294393e+01 3.3218527044149742e+00 0 0 0
1184 2 3.6335267916198042e+00 7.0708809651255358e+00 8.8266166800904760e+00 0 0 0
15 2 7.1492650645902431e+00 1.0282799331051271e+00 1.7106435330225671e+00 0 0 0
686 2 8.0669751159529142e+00 1.4394953558709750e+01 1.5002455254741551e+00 0 0 0
1807 1 1.6945509246275840e+01 1.7073792783861531e+01 2.6337703798085093e+00 0 0 1
1096 1 4.1729475314161544e+00 1.3745288419153244e+01 7.8376169172367645e+00 0 1 0
129 2 1.9820547252048275e+01 6.2331790637637088e+00 1.3548992071250379e+00 0 0 0
680 2 -2.2575727956984612e-01 7.9151415299722343e+00 9.5097354335906683e+00 0 0 0
743 2 1.1505610343886046e+01 1.7055668264396676e+01 2.0613934774062059e+00 0 -1 0
684 2 3.4945231622440089e+00 1.6900414749374836e+01 4.3678526314281303e+00 0 -1 0
275 2 7.7494392991131686e+00 9.3493686212107612e+00 1.0980734626527844e+00 0 0 0
1753 1 2.3591088062222076e-01 2.2350678037338061e+00 8.5677335834361212e+00 0 1 0
78 2 1.9115748212832514e+01 1.5783601989370519e+01 1.0816826641159751e+00 0 -1 0
890 2 3.0234274695660548e+00 1.2385115836582523e+01 2.6877884754797310e-01 0 0 0
87 2 1.1653935210924152e+01 1.8741183192977076e+01 5.2138820492124918e+00 0 -1 0
225 2 3.0808818823054542e+00 2.2466889242654564e+00 3.7351207702574576e+00 0 1 0
1794 2 8.6175594476757222e+00 4.9295868095770183e+00 1.8740179730517939e+00 0 0 1
1579 1 4.3403854561566302e-01 1.9332708594407958e+01 8.7067761267018344e+00 0 -1 0
1163 2 9.6703057765925209e+00 6.0320638452644353e+00 3.6250435829911538e+00 0 1 1
728 2 1.9044109032481661e+01 4.4136570519504925e+00 6.7809505207631950e+00 0 0 0
442 1 5.2228952787156437e+00 4.5150126417127909e+00 5.7496257523073178e+00 0 1 0
1782 2 1.4849465858907939e+01 1.3521857997664824e+01 8.3252943016841634e+00 0 0 0
468 2 1.3369776710568408e+01 3.5504117147147212e+00 2.0013282101174674e+00 0 1 1
1775 2 3.1276916513567201e+00 8.0837238739224315e-01 2.0356281023741198e+00 0 1 1
1781 2 1.5555901293056023e+01 1.4716009897435601e+01 9.1410133316224940e+00 0 0 0
1327 1 4.5803496057322119e+00 2.8426753370574667e+00 8.0460053885870355e+00 0 0 0
903 2 1.3301346911834264e+01 7.5770321935137899e+00 1.8305049969134251e+00 0 1 0
1576 1 1.8594272988536670e+01 7.8408060400553374e+00 4.3224069467982167e+00 0 0 1
487 1 1.4542072256296811e+01 6.5195201130841385e+00 8.8140076607736173e+00 0 1 -1
463 1 1.2803141478663244e+01 1.6024593036937681e+01 1.4236919020145113e+00 0 -1 -1
1159 1 1.3332073462186283e+01 1.4102319660747295e+01 7.4762735188615723e+00 0 0 0
936 2 1.4643377927335784e+01 1.3211769044745065e+01 2.7307529602622092e+00 0 1 1
689 2 1.6547232476763671e+01 1.8621155650286326e+01 2.0049347279363436e+00 0 -1 0
940 1 1.7165522990816825e+01 4.2685777880531042e+00 1.8828321601003490e+00 0 1 1
1595 2 1.0824799531825576e+01 1.9456949185958372e+01 7.0819743127426538e+00 0 0 0
744 2 1.0168350176169175e+01 1.7175209677709606e+01 2.9467939350036509e+00 0 -1 0
85 1 1.0878844712165293e+01 1.8499787668196895e+01 5.7032011913570519e+00 0 -1 0
1755 2 3.5646696413699508e-01 2.7008909546390618e+00 9.4223959844357630e+00 0 1 -1
1620 2 7.6876625743334914e+00 2.5299720223324158e+00 8.5011296197957371e+00 0 0 0
73 1 1.8600045321495067e+01 9.2938704306287718e+00 6.6382691222600734e+00 0 0 0
1143 2 1.5249721165662788e+01 1.5293359050606837e+01 9.4227300169748979e-02 0 0 0
920 2 2.4579541894222530e+00 1.9244826479852403e+01 6.7248538086741858e+00 0 0 0
232 1 8.7706742997982428e+00 9.5005427145590033e+00 8.3494312041413909e+00 0 0 -1
476 2 6.1213816799784180e+00 1.7545313123046054e+01 2.2924858589565051e+00 0 0 1
1370 2 1.0283163063458701e+01 5.5825163720470830e+00 9.1624714210390348e+00 0 0 1
919 1 1.6698313184330398e+00 1.8853213122664453e+01 6.2947646574369429e+00 0 0 0
526 1 1.6092879908680988e+01 1.6592315972928244e+01 6.2100502520110954e+00 0 0 0
227 2 4.3123959238239029e-01 1.2026162083574611e+01 2.6617037526134077e+00 0 0 0
937 1 6.0980072218663866e+00 7.1655933813062669e+00 1.0355636710482047e-01 0 0 0
320 2 4.9147942955652724e+00 1.8163641780387120e+01 5.6284056458873595e+00 0 -1 1
230 2 1.8264808044940701e+00 1.4790703026173283e+01 5.2842519553800340e+00 0 0 0
16 1 3.6194633834841419e+00 7.5405461544155639e+00 1.1232131603161017e+00 0 0 0
1094 2 1.7686975988488918e+01 6.5673494533299106e+00 8.2432150675576317e+00 0 2 0
499 1 6.4180274640072232e+00 9.2853691019558404e+00 1.0043972021919528e+01 0 0 -1
1085 2 4.2902727410108463e+00 1.5431298552124357e+01 7.9627594878040631e+00 0 0 0
739 1 1.4243470339923581e+01 1.6266638142536195e+01 3.5114977449684375e+00 0 0 1
1187 2 4.2917188865823208e+00 1.3234481165000659e+01 1.3652837554246069e+00 0 0 0
666 2 2.6134145018766812e+00 6.2795666403053776e+00 7.0519492774344661e+00 0 0 0
1813 1 1.1035221574853123e+01 4.5786534076657599e+00 6.1136653583016924e+00 0 1 1
1569 2 4.3398623065204598e+00 3.0906088669038467e-01 4.7488106590554233e+00 0 0 1
1328 2 5.4274342090091547e+00 3.0328983862085135e+00 8.5751430244995444e+00 0 0 0
1580 2 8.9967909595210793e-01 1.9180192695939279e+01 7.8655525036778462e+00 0 -1 0
19 1 1.0216648671577000e+00 8.0148926931417215e+00 4.8589789021512111e+00 0 0 0
1095 2 1.6237945086210583e+01 6.7049219382724665e+00 8.8138617405955664e+00 0 2 0
1359 2 5.3068389748795193e+00 8.2441601762295225e+00 6.1917647047040631e+00 0 0 0
465 2 1.2584746368406565e+01 1.5066745372704029e+01 1.3732171542930638e+00 0 -1 -1
912 2 7.1524612105020093e+00 1.2191439144770969e+01 8.3552745787462541e+00 0 0 0
1754 2 3.0402702281878857e-01 1.2719162372677821e+00 8.6762929279435763e+00 0 1 0
749 2 1.6091712975316998e+01 8.7566059288874811e+00 8.3322576707245783e+00 0 0 1
1316 2 1.1973019558209624e-01 1.4147155507082456e+01 8.8380890046965508e+00 0 -1 0
1348 1 8.4707010427189484e+00 1.2670002921787589e+01 4.2963159543274827e+00 0 0 0
694 1 8.6980138625840819e+00 6.2944420367526988e+00 6.9944817643813826e+00 0 -1 0
489 2 1.4416580604521632e+01 6.5406456779245028e+00 7.8505868094540148e+00 0 1 -1
1773 2 1.6075588776591868e+01 1.3089060593658360e+01 5.8550702387098816e+00 0 0 0
1583 2 1.2310077387142480e+01 1.3070112221564830e+01 4.3140925810544513e+00 0 0 0
932 2 1.6024017022698885e+01 1.0390228223610926e+01 5.1976713059698882e+00 0 0 0
235 1 9.4463063046472264e+00 1.3982161236420112e+01 9.2399157824055163e+00 0 0 0
1391 2 1.8269505118186704e+01 4.3505326826942827e+00 8.7564447634751073e+00 0 1 0
677 2 -1.7701761414602846e-01 7.9529719105516525e+00 2.2765027072229893e+00 0 0 0
702 2 6.8340867019138960e+00 4.3837692620442201e+00 5.3652560632826711e+00 0 0 -1
939 2 6.4395344791359195e+00 7.9968764175050149e+00 6.5368094911920049e-01 0 0 0
536 2 1.4117019835440844e+01 1.8657146131983222e+01 5.1029801543225224e+00 0 0 0
738 2 1.3202678749240505e+01 1.0995322510524376e+01 8.5770304142710678e+00 0 0 0
223 1 2.9775888496910921e+00 1.2616183376409180e+00 3.5634325152456716e+00 0 1 0
955 1 1.2044280944511941e+01 1.4869716447073017e+01 4.6491747789604707e+00 0 0 0
1332 2 8.0649900025572432e+00 9.2168672051289438e+00 4.8138270322036156e+00 0 0 0
883 1 1.2948188382231868e+01 1.3388323680968233e+00 6.3836561180303883e+00 0 0 0
282 2 3.0028377460217284e+00 9.2216698748965751e+00 9.8675787038145888e+00 0 0 0
682 1 2.9965539277759308e+00 1.6497557480363845e+01 3.5937017197207419e+00 0 -1 0
256 1 3.2677378005005204e+00 8.7582656616609231e+00 3.5362567456134650e+00 0 0 1
1542 2 1.3744819755723769e+00 2.8215812525665878e+00 8.7728960450782556e-01 0 0 1
51 2 1.4322134883837515e+01 9.7870333432476464e+00 3.3226886595685232e+00 0 -1 0
104 2 1.5563082747801467e+01 7.5783128247323690e+00 1.9739538285373717e+00 0 0 0
740 2 1.5130833176154425e+01 1.6610720329628361e+01 3.2824793508669634e+00 0 0 1
482 2 1.1859158305712572e+01 3.1664360592425171e+00 1.0418570865437917e+00 0 1 0
727 1 1.8910129023500083e+01 5.0787549584200296e+00 7.5311827181126665e+00 0 0 0
1747 1 7.3122926434993230e-01 1.0677409214725316e+01 3.8522039683788676e+00 0 0 1
438 2 1.2090944004188685e+01 1.2820705558161290e+01 7.1956535368432855e+00 0 0 0
957 2 1.2667039349895056e+01 1.5563112306796450e+01 4.7225726663640364e+00 0 0 0
485 2 6.6607540720619065e+00 1.1629880663643808e+01 3.3732542616419856e+00 0 0 0
219 2 1.4307261795697446e+01 1.1474183951133163e+01 6.3902252451935277e+00 0 0 0
1793 2 9.0037112812978837e+00 3.7118879722741527e+00 2.7062376610221830e+00 0 0 1
1144 1 1.8647528173657548e+01 1.8571192378864197e+01 7.3536773640305766e+00 0 0 0
274 1 6.8806394926438985e+00 9.0819830879871084e+00 1.5050559638959746e+00 0 0 0
942 2 1.7425039722860411e+01 5.1570113464770673e+00 1.5326494431660942e+00 0 1 1
17 2 3.2767824026833181e+00 8.3403713248487392e+00 6.8203090657697296e-01 0 0 0
667 1 4.2112206399011254e-01 1.7489595280621412e+01 3.7988756436551827e+00 0 0 0
8 2 1.2072632490244573e-01 1.1925851022527068e+01 9.5814640837044909e+00 0 -1 0
921 2 1.3507876623323640e+00 1.9534229503981248e+01 5.7156635843298629e+00 0 0 0
748 1 1.6204755434380175e+01 9.7341503703468248e+00 8.1597573906841738e+00 0 0 1
480 2 1.5522983494743352e+01 1.5029749794596080e+01 5.8881938626743375e+00 0 0 -1
302 2 1.4730102294381792e+01 4.5748770540511519e+00 4.1621666573664280e+00 0 0 -1
293 2 1.3709448061388024e+01 2.8351611747150174e-01 7.7077352415204263e+00 0 0 -1
1557 2 1.1326456937746149e+01 7.7063734894824352e+00 8.2701633219515736e-01 0 0 1
953 2 1.6725267118642485e+01 1.2426069763135866e+01 3.0401152646017184e+00 0 0 1
1385 2 9.1898745171448581e+00 1.7621453449034433e+01 1.0160138287577698e+00 0 -1 1
1125 2 1.6894001117752637e+01 1.1152357029092481e+00 7.7043944931775439e+00 0 1 0
306 2 6.7574657019807658e+00 1.6339070643230468e+01 5.8145385188299192e+00 0 0 1
970 1 1.9398187190973822e+01 1.3783857194087178e+01 4.4384720813281131e+00 0 0 0
1161 2 1.3790116735492159e+01 1.4214330660624141e+01 6.6345823010164144e+00 0 0 0
915 2 1.9602848502707140e+01 1.9112917176894413e+01 8.4656836392720580e-01 0 0 0
1760 2 4.8718286488850184e+00 1.2457349793468666e+01 5.2500507855982130e+00 0 0 1
959 2 1.6461538064033615e+01 2.0030677292126455e+00 3.7618823017331495e+00 0 1 0
1828 1 1.1632130551321842e+01 2.5229019241485635e+00 8.8504015111816141e+00 0 0 0
700 1 7.7712741452999623e+00 4.1866361875437397e+00 5.4202565722192855e+00 0 0 -1
466 1 1.2506240548422335e+01 3.1683601638130745e+00 2.3794315375767132e+00 0 1 0
1554 2 1.2919644962387324e+01 6.2401057809987011e+00 3.7549554266189960e+00 0 0 1
231 2 1.7285105657763551e+00 1.3290526963473939e+01 5.6797882453649038e+00 0 0 0
1183 1 3.8323136042509667e+00 6.2622878035045337e+00 8.3400141472512477e+00 0 0 0
1156 1 7.2444358298398406e+00 7.7463596547721671e+00 4.0035981594334524e+00 0 0 0
508 1 1.5083824253325808e+01 3.8774007294441000e+00 9.4504293947016045e+00 0 2 -1
304 1 7.6568476215117487e+00 1.6309934083257275e+01 6.0992344794837381e+00 0 0 1
1357 1 4.9384860309304104e+00 7.5437765307028259e+00 5.5744595187482648e+00 0 0 0
518 2 1.7557119520744905e+01 1.8079655449042612e+01 8.6281205602576669e+00 0 0 0
1558 1 9.3626021257505325e+00 2.0545988209971324e+00 3.3550601552344514e+00 0 1 1
1185 2 4.8131049616089321e+00 6.2213332259095022e+00 8.2538462281698664e+00 0 0 0
324 2 1.5568302620394023e+01 4.1743560662313168e+00 1.4906800555524780e+00 0 1 1
1535 2 1.0651296984491342e+01 1.1234764287468286e+01 2.3951932153603361e+00 0 -1 0
250 1 4.5019462886611423e+00 3.7690154198464900e+00 1.4988057609054393e+00 0 -1 0
1376 2 4.0173409169263925e+00 1.8448716256982831e+01 1.1643794521590336e+00 0 0 1
1331 2 9.5439727332253135e+00 9.5445457751160490e+00 4.5831607451371195e+00 0 0 0
452 2 1.9652157072918635e+00 9.1113000814656573e+00 6.3193012095529015e+00 0 0 -1
1321 1 1.7591754447171002e+00 1.6061080675787316e+01 6.4711721580812531e+00 0 0 1
660 2 1.1467979234811963e+01 1.6032231988075200e+01 7.2050610442421341e+00 0 -1 0
246 2 1.2133148101977795e+01 1.9547528196484961e+01 3.1230946582680215e+00 0 0 0
323 2 1.4440876846663391e+01 4.0481401343058296e+00 4.6851697879513615e-01 0 1 0
1381 1 1.8568804842775041e+01 1.2430625829074216e+00 8.6509805962412347e+00 0 0 0
276 2 7.0859173324420874e+00 8.6835813884994337e+00 2.4128947947325590e+00 0 0 0
488 2 1.3891922403595746e+01 7.1890051281604643e+00 9.2408012115113181e+00 0 1 -1
1536 2 9.8063649525642909e+00 1.2287798056271392e+01 3.0067531549948656e+00 0 -1 0
1764 2 7.4567326975704495e-01 6.0127449516263551e+00 9.9051108831406365e-01 0 1 0
958 1 1.7127623100987858e+01 1.3151923162203367e+00 3.9107602417672882e+00 0 1 0
245 2 1.0962194840895572e+01 1.9264845478841668e+01 2.3114100249000749e+00 0 0 0
875 2 5.9277431521512893e+00 1.4499472630431454e+00 3.5524955148578594e+00 0 0 0
722 2 9.0617243278215014e+00 1.2487084078774107e+01 9.2916226287974668e-01 0 0 0
1823 2 1.1256773540544524e+01 8.8960095746986205e+00 2.6591889668119695e+00 0 0 1
654 2 4.6517083589886736e+00 9.9927030271841737e+00 7.2409786071966833e+00 0 0 0
1301 2 3.7736777802820969e+00 1.2206854362091832e+01 3.7055221048811924e+00 0 0 0
1805 2 8.7190674802671335e+00 1.6460643025605542e+01 4.5704581687611894e+00 0 0 1
894 2 2.8152558833007291e+00 2.8717473613297688e+00 6.9494213146471360e+00 0 0 0
711 2 1.8698616189411084e+01 9.3498952458704654e-01 4.5951548834572922e+00 0 0 0
1168 1 1.9061402017289161e+01 2.5043869098308078e+00 9.3428025034313800e-01 0 0 0
1324 1 6.7986084041945363e+00 3.5714534981216808e+00 9.3266092314093871e+00 0 0 0
449 2 1.7130920530508778e+01 5.0338524413649166e+00 4.6371516367342451e+00 0 1 0
1567 1 5.2887316368944202e+00 1.0407392343355462e-01 4.7517244755880013e+00 0 0 1
1581 2 6.3502183538699686e-01 1.8637627932436885e+01 9.4188213254311268e+00 0 -1 0
1815 2 1.0524533101293718e+01 3.7037785286877498e+00 6.0677359977192769e+00 0 1 1
1609 1 3.9252466701526592e+00 1.9443247087986983e+01 7.8700505096164610e+00 0 0 1
965 2 8.1048696382605581e+00 1.7778736680922300e+01 6.9478976170464275e+00 0 0 0
971 2 1.8684776491029371e+01 1.3334806334150741e+01 3.9129627024928455e+00 0 0 0
519 2 1.6490212549354602e+01 1.7490678081725815e+01 9.5376515482874709e+00 0 0 0
750 2 1.6527599641602222e+01 1.0154734182498006e+01 9.0064404113345837e+00 0 0 1
1601 2 1.5956097083185153e+01 9.7034039506508272e+00 7.0507752620263497e-01 0 1 1
1384 1 8.2401362601870485e+00 1.7571705394751689e+01 6.2917201446456350e-01 0 -1 1
1602 2 1.4932100441320145e+01 1.0583557338589968e+01 1.4012463458129452e+00 0 1 1
314 2 1.3194315885079558e+01 9.6801317512415448e+00 6.0842523750310695e+00 0 0 0
1146 2 1.8469896031147666e+01 1.9474911800045888e+01 7.0170003957642875e+00 0 0 0
904 1 1.0262890014191608e+01 2.1188419356238928e+00 5.9056943998538483e+00 0 0 0
1761 2 5.6828904061830370e+00 1.3755708050546263e+01 5.0541179819484574e+00 1 0 1
13 1 7.6896252561050753e+00 5.4768707466953304e-01 1.0789360368682896e+00 0 0 0
252 2 4.9536130759735242e+00 4.0969614582173879e+00 6.2233582817848487e-01 0 -1 0
1086 2 3.1400752186042773e+00 1.6522251478268448e+01 7.9516115757204746e+00 0 0 0
484 1 6.5734412909613251e+00 1.1686908227485088e+01 2.3966084410345827e+00 0 0 0
48 2 2.3522819621051712e+00 1.1215417461763778e+01 6.8395150867377197e+00 0 -1 0
76 1 1.8260750538160295e+01 1.6081781705257150e+01 5.8702625273644937e-01 0 -1 0
1157 2 6.4334308950234478e+00 7.3710300607617514e+00 4.3863817561903149e+00 0 0 0
729 2 1.9829591196404916e+01 5.0903570339553132e+00 7.8827134696129395e+00 0 0 0
1829 2 1.0866907297925723e+01 2.8261437907193145e+00 9.4518590717096895e+00 0 0 0
1133 2 1.7882490378976936e+01 7.4986554290674183e+00 1.0416784716219087e+00 0 1 0
46 1 2.2605685160283269e+00 1.2139411719873207e+01 7.1617591177808393e+00 0 -1 0
1519 1 1.5172595127047009e+01 7.3030508301789325e+00 5.9497273292196233e+00 0 0 1
1123 1 1.6171219435399891e+01 1.0502849821102593e+00 7.1046215540447966e+00 0 1 0
450 2 1.8155176543111480e+01 4.8944482984606639e+00 3.4051086342259098e+00 0 1 0
659 2 1.0628466572987179e+01 1.7103440804475060e+01 6.4725132381701718e+00 0 -1 0
322 1 1.4616028255863441e+01 4.3499865552797665e+00 1.3619879305526379e+00 0 1 0
1534 1 1.0185688637234110e+01 1.2018917406200144e+01 2.1707441619224745e+00 0 -1 0
90 2 1.9296239147809636e+01 1.0730720028497952e+01 6.2125309545525971e+00 0 0 0
444 2 4.5768874164102868e+00 4.2463023026770834e+00 5.0183018820044696e+00 0 1 0
695 2 8.3890375869948510e+00 5.5191161288328452e+00 6.4829197685570845e+00 0 -1 0
436 1 1.1422314600488770e+01 1.2162075520559815e+01 7.0993528177343705e+00 0 0 0
1145 2 1.8887090661025862e+01 1.8089188982829821e+01 6.5231137707691209e+00 0 0 0
301 1 1.5405080007694451e+01 4.8382342729915706e+00 4.8392875625945466e+00 0 0 -1
1582 1 1.2577554299530973e+01 1.2123370553600985e+01 4.5192586814200473e+00 0 0 0
670 1 1.4946297740709507e+01 1.6376001278203031e+01 9.6822924898103331e+00 0 -1 0
1759 1 5.4489654741906168e+00 1.3055054857725604e+01 5.7442112917274724e+00 0 0 1
1830 2 1.1890104983226522e+01 3.2815744994021876e+00 8.3345337744693815e+00 0 0 0
50 2 1.3613424815161382e+01 1.1218879497413020e+01 3.3454703893266400e+00 0 -1 0
101 2 1.6493254467872074e+01 1.9665809104837376e+01 4.5815409772938818e+00 0 -1 0
956 2 1.1138407017059935e+01 1.5318269798205732e+01 4.6765528434726402e+00 0 0 0
453 2 2.3238851257649187e+00 9.1282127615540514e+00 7.8508577836953215e+00 0 -1 -1
1383 2 1.8831105694836484e+01 8.8461856703919417e-01 9.5374471818769830e+00 0 0 0
292 1 1.3840320951428721e+01 1.9351062241047892e+01 8.4279834392888482e+00 0 -1 -1
65 2 1.8895148809781592e+01 1.5688699724042257e+01 7.8886146510854607e+00 0 0 -1
902 2 1.4045956858094824e+01 6.1938842944514656e+00 1.7204965944917783e+00 0 1 0
527 2 1.6408747321907896e+01 1.7418248740228734e+01 5.8302894529819049e+00 0 0 0
931 1 1.6004063316534030e+01 9.5862502972401309e+00 4.5770902757130791e+00 0 0 0
952 1 1.7595874152161521e+01 1.1893004326871875e+01 3.2276573504765937e+00 0 0 1
1136 2 5.4329172014725424e+00 1.5683314995958257e+01 4.0857667707989842e+00 0 1 0
736 1 1.2754359525729855e+01 1.0928058412560222e+01 9.4583019518700926e+00 0 0 0
1563 2 1.1158239760486734e+00 2.1228347902713409e+00 5.5435252627042590e+00 0 1 0
315 2 1.2094850779436975e+01 8.5390668188081751e+00 6.1737283214384115e+00 0 0 0
1568 2 5.7492201997256425e+00 4.4378654845049559e-01 5.5169335906826253e+00 0 0 1
319 1 4.7893578507050858e+00 1.7192082938510222e+01 5.4881612778931341e+00 0 -1 1
280 1 2.7960693980110567e+00 8.4513584295301811e+00 9.3141684425902653e+00 0 0 0
1619 2 8.5893629721757652e+00 1.3737390172590176e+00 8.9699041487870126e+00 0 0 0