LAMMPS data file via write_data, version 15 Apr 2020, timestep = 200000

972 atoms
2 atom types

2.3615703465406845e-01 1.9754895965347629e+01 xlo xhi
1.0637472209089083e-01 1.9884678277911888e+01 ylo yhi
1.7649501564140202e-01 2.0624276984357635e+01 zlo zhi
-5.3551391159028107e-02 9.2958589809131076e-02 1.7369029494337956e-01 xy xz yz

Masses

1 16
2 2

Atoms # atomic

4 1 3.8734625775730334e+00 1.4747398526307371e+00 3.0223359960493816e+00 0 0 0
5 2 4.1121976681829757e+00 2.4243409859043710e+00 3.0009667260089348e+00 0 0 0
6 2 3.2243358330318386e+00 1.4397380068813483e+00 3.8302556042267160e+00 0 0 0
7 1 6.0245217170979410e+00 4.7327956037646963e+00 5.6508478298285949e+00 0 0 0
8 2 6.7309580196831771e+00 4.6373045179036385e+00 4.9824447706353174e+00 0 0 0
9 2 5.2190202159612022e+00 4.5467616584961759e+00 5.1227145484527217e+00 0 0 0
10 1 1.6842244104997990e+00 4.5751934675328121e+00 3.9879619212285911e+00 0 0 0
11 2 8.9914472394833145e-01 4.6661941788918373e+00 4.6138890051213917e+00 0 0 0
12 2 1.4953811464856706e+00 5.1891171716358171e+00 3.2441860917205485e+00 0 0 0
13 1 4.8793242298452428e+00 6.1774700865748606e+00 1.4703834411619203e+00 0 0 0
14 2 4.5881884916641100e+00 6.8668079439400271e+00 2.1374685187389195e+00 0 0 0
15 2 4.1792005897552542e+00 5.9803905064723510e+00 8.3836810729969358e-01 0 0 0
16 1 4.4029933455922299e+00 4.2673347014024774e+00 3.3509584370263727e+00 0 0 0
17 2 4.4601143777407852e+00 4.8951388590536240e+00 2.5178488586306860e+00 0 0 0
18 2 3.3986592850199262e+00 4.2589753436420157e+00 3.5548017723075369e+00 0 0 0
2 2 3.9984652710396564e+00 2.7970816399089653e+00 6.6287510115335335e-01 0 0 0
572 2 2.5947875869612158e-01 1.5754216475697023e+01 8.5093683356039982e+00 0 0 0
22 1 2.4037575200478400e+00 1.1141848369856315e+00 5.3301901522319870e+00 0 0 0
23 2 1.4649856668216856e+00 1.0392880640294702e+00 5.4186550435447609e+00 0 0 0
24 2 2.6096974099848720e+00 1.8976586395155319e+00 5.8353494651728308e+00 0 0 0
25 1 2.5211062381210767e+00 5.7411076157007850e+00 6.7477740742667054e+00 0 0 0
26 2 2.3816533451871340e+00 6.3157607063129788e+00 5.9656783030807494e+00 0 0 0
27 2 3.4486231083261547e+00 5.8439838312015402e+00 6.9676798433114584e+00 0 0 0
28 1 5.9940875419411048e+00 1.2319220015314460e+00 5.1161083736207313e+00 0 0 0
29 2 5.2471530197363236e+00 1.4188689864462138e+00 4.5112876784013061e+00 0 0 0
30 2 6.0324772011915897e+00 2.8302929942600452e-01 5.3382655272740074e+00 0 1 0
31 1 1.2066313607859074e+00 2.1870337165302853e+00 2.2855245737253966e+00 0 0 0
150 2 9.8613811198371106e+00 7.7207038844630453e+00 3.9733948880583743e+00 0 0 0
33 2 1.2415997064309481e+00 2.8082914953753564e+00 3.0785230173838500e+00 0 0 0
437 2 4.2380492586649847e+00 8.9186917365929546e+00 9.8859836218931534e+00 0 0 0
35 2 6.2949370556100952e+00 2.8660628172527649e+00 1.1086545701333046e+00 0 0 0
46 1 8.1287263805115977e+00 4.6210414365185652e+00 3.6649229191637782e+00 0 0 0
47 2 9.0265728441769539e+00 4.2519598681671491e+00 3.6909117017074400e+00 0 0 0
48 2 8.1293790190718624e+00 5.3309676286527283e+00 3.0596501994800622e+00 0 0 0
55 1 7.7565477018220870e+00 6.4228934372967483e+00 1.7330347099711521e+00 0 0 0
56 2 7.8195564231926085e+00 7.3703023103121383e+00 1.8374232974702418e+00 0 0 0
57 2 6.8110808381539041e+00 6.2979754884619794e+00 1.5015404151040506e+00 0 0 0
58 1 8.7206951171680060e+00 1.5287995895790309e+00 5.1797692771292141e+00 0 0 0
59 2 9.2628198013925385e+00 1.5614431110687899e+00 4.3400770695980349e+00 0 0 0
60 2 7.7348141881591346e+00 1.4296945543900486e+00 4.9444312677995903e+00 0 0 0
61 1 9.2289035935027748e+00 5.8010743671034168e+00 6.7843336794349263e+00 0 0 0
62 2 9.4412675475835801e+00 4.8523018876811586e+00 6.6977657931324837e+00 0 0 0
63 2 8.6077428610103777e+00 5.9297893350620248e+00 7.4629272829750475e+00 0 0 0
67 1 7.6669019517276329e+00 2.2627617057528684e+00 2.0519900658380701e+00 0 0 0
68 2 7.6955692177115349e+00 2.8302810879089995e+00 2.8489371292603907e+00 0 0 0
69 2 8.3775364642490633e+00 2.4917030372823032e+00 1.4178646438006450e+00 0 0 0
342 2 4.4904689639378566e+00 3.0862921782419246e+00 1.0074410183069357e+01 0 0 0
609 2 7.8080267263325114e+00 1.6388929987517123e+01 9.4620832887176842e+00 0 0 0
558 2 4.7763829202445347e+00 1.7742380341864333e+01 9.6157719415986787e+00 0 0 0
112 1 4.3637766635897650e+00 7.7935146240471571e+00 3.4719480920907615e+00 0 0 0
113 2 4.9799162452542856e+00 7.5838894937168053e+00 4.2457313338226133e+00 0 0 0
114 2 4.4495054965842504e+00 8.7446597767378904e+00 3.2767724816734023e+00 0 0 0
115 1 6.3778725236251006e+00 1.1122306761017963e+01 5.4900384255868682e+00 0 0 0
116 2 6.1584876843798408e+00 1.2066099085862689e+01 5.6604531141291075e+00 0 0 0
117 2 6.0467220442725127e+00 1.0501544147608159e+01 6.1614040009775612e+00 0 0 0
118 1 1.4017969940539319e+00 1.0922870434823565e+01 3.7548071185747975e+00 0 0 0
218 2 3.7031603324621107e+00 1.5840210980256181e+01 2.6251723391410747e-01 0 0 0
120 2 2.3457512301072696e+00 1.0538546256210164e+01 3.7991152852413461e+00 0 0 0
121 1 5.1247349577854546e+00 1.2701831491786963e+01 1.6948363154051940e+00 0 0 0
122 2 6.0068692404230575e+00 1.2645062646097834e+01 1.3735718550715512e+00 0 0 0
123 2 4.4439930259032101e+00 1.2660373271364268e+01 9.6830172952138116e-01 0 0 0
124 1 4.2789177098199476e+00 1.0580126807972217e+01 3.4472423740018638e+00 0 0 0
125 2 4.6080203757285529e+00 1.1177442561434438e+01 2.7418916750424436e+00 0 0 0
126 2 4.9676991430240696e+00 1.0725050703901900e+01 4.1839492570773409e+00 0 0 0
127 1 7.5472749675955875e-01 1.2618223874961682e+01 1.8943049378068799e+00 0 0 0
128 2 1.3252804992850855e+00 1.2582696296465112e+01 1.0803743827509531e+00 0 0 0
129 2 1.1141001647191975e+00 1.2086654688676170e+01 2.6485151391057142e+00 0 0 0
130 1 1.9631064403895218e+00 7.7537271079108692e+00 4.8700279681395058e+00 0 0 0
131 2 2.6201238503300783e+00 7.7760083425359463e+00 4.1856554356794575e+00 0 0 0
132 2 2.2585679652236017e+00 8.4005225944151842e+00 5.5465702131921839e+00 0 0 0
133 1 2.7983604912230411e+00 1.2189318277829681e+01 6.7625931708498390e+00 0 0 0
134 2 2.1814475899306984e+00 1.2638212336679054e+01 7.4094774108839729e+00 0 0 0
135 2 2.6665128351941090e+00 1.2646880111927267e+01 5.8848010490693330e+00 0 0 0
136 1 5.8587454579504152e+00 7.3864892798106974e+00 5.5746786692873354e+00 0 0 0
137 2 5.9301121037347624e+00 6.3983388145511952e+00 5.7401259172071644e+00 0 0 0
138 2 6.8362250171261136e+00 7.5846111259677329e+00 5.3736619061506481e+00 0 0 0
139 1 8.0662005958875316e-01 8.7850469205249073e+00 2.2235559913856520e+00 0 0 0
140 2 7.2709746037968237e-01 9.4577038272529474e+00 2.9321822956614461e+00 0 0 0
335 2 1.2498210536700893e+00 3.8076172813971207e+00 1.0340999727977168e+01 0 0 0
147 2 8.2138237026084369e+00 9.2328616777993471e+00 6.1840215850927660e-01 0 0 0
20 2 1.1190333235759122e+00 7.1649440458272249e+00 2.0259510450543914e+00 0 0 0
154 1 8.4873671040618905e+00 1.1034964309266243e+01 3.7558513875084674e+00 0 0 0
155 2 8.0566396565515213e+00 1.1214211138854958e+01 4.6274760564649782e+00 0 0 0
156 2 9.4109831654445699e+00 1.0780217966260972e+01 3.9965642975573350e+00 0 0 0
163 1 7.8446105408401428e+00 1.2810963711591665e+01 1.9197233927793451e+00 0 0 0
164 2 7.9922392728435216e+00 1.2024807780000536e+01 2.4705302828126952e+00 0 0 0
165 2 8.4008379535582467e+00 1.2731323371532856e+01 1.1365884458020128e+00 0 0 0
166 1 8.4431214871979048e+00 7.9229420965883728e+00 5.2096150830016086e+00 0 0 0
167 2 8.6764797451401900e+00 8.5830587693255627e+00 5.9695014328769567e+00 0 0 0
168 2 8.9067063933351278e+00 7.1474531446772174e+00 5.5615626585968485e+00 0 0 0
169 1 9.4373698908285917e+00 1.2372019553569062e+01 6.7590918560441633e+00 0 0 0
142 1 5.1891506559000122e+00 9.3305708976238986e+00 3.6165076957471121e-01 0 0 0
175 1 7.2308818973795850e+00 9.0660153188433679e+00 2.3236096318003669e+00 0 0 0
176 2 7.6868592534935196e+00 9.7968953290738341e+00 2.7484687846574696e+00 0 0 0
177 2 6.4473274121444639e+00 9.4823551950236169e+00 1.8670042429461651e+00 0 0 0
450 2 4.3565052435078702e+00 1.1424042390052332e+01 9.8473821489247904e+00 0 0 0
3 2 2.4270977499315904e+00 2.4430908907487270e+00 1.2758562005527068e+00 0 0 0
111 2 1.8405619777016164e+00 9.4196444397676036e+00 9.2682552307605315e-01 0 0 0
436 1 4.0473667904396260e+00 8.0045317372312965e+00 1.0173685512521608e+01 0 0 0
297 2 5.7641482104306119e-01 1.7378053001519646e+01 5.2975312632549807e+00 1 0 0
220 1 4.2958375257132051e+00 1.4400909896258925e+01 3.5812489261380449e+00 0 0 0
221 2 4.6198993086850235e+00 1.5280122163327453e+01 3.5438380111785355e+00 0 0 0
222 2 4.7526379065627182e+00 1.3863731745049151e+01 2.8162301319053196e+00 0 0 0
223 1 6.2832365136912269e+00 1.8248476723253443e+01 5.7869851705606878e+00 0 0 0
224 2 7.0922355814415674e+00 1.7970273348515327e+01 5.3556847757805714e+00 0 0 0
225 2 5.9296010770193579e+00 1.7421784414247934e+01 6.2429112186341085e+00 0 0 0
226 1 1.8695486216139867e+00 1.7147154360902100e+01 4.1796868093464523e+00 0 0 0
227 2 1.7151052134643783e+00 1.7863144979897182e+01 3.5588038124492458e+00 0 0 0
228 2 1.6544487981017899e+00 1.6344298247307151e+01 3.6266730832145724e+00 0 0 0
229 1 4.7936675134029061e+00 1.9224647173677404e+01 1.4636569473358407e+00 0 0 0
230 2 4.6901560103053326e+00 1.8560236140750412e+01 2.1587463946436882e+00 0 0 0
231 2 4.6684802007699879e+00 2.8956569804776899e-01 1.9490455163591749e+00 0 0 0
232 1 4.6473274620772660e+00 1.7601369798337558e+01 3.6047391836124545e+00 0 0 0
233 2 3.8515358386365164e+00 1.7581131387000415e+01 4.1572300157777953e+00 0 0 0
234 2 5.3453340350023062e+00 1.7984707100390583e+01 4.1917018720084416e+00 0 0 0
235 1 1.2492201884869161e+00 1.9232960087398002e+01 2.1385392207366829e+00 0 0 0
236 2 1.2825954438417433e+00 4.2526624892668335e-01 2.2742102445693559e+00 0 0 0
237 2 1.9277094592075013e+00 1.9067429067964007e+01 1.4830186792217275e+00 0 0 0
238 1 2.1103988242583629e+00 1.4292171640689439e+01 5.1450759483239192e+00 0 0 0
239 2 2.7550077500384926e+00 1.4378827718353772e+01 4.4247887153891954e+00 0 0 0
240 2 1.1552927658215282e+00 1.4145358558176667e+01 4.8149068887738453e+00 0 0 0
241 1 3.4157295902022513e+00 1.8853008537842022e+01 6.6366063381975424e+00 0 0 0
242 2 2.9363740596195242e+00 1.9479481569936592e+01 6.0422307831034328e+00 0 0 0
243 2 3.1797502508800370e+00 1.7898632556660083e+01 6.5362882006694392e+00 0 0 0
244 1 6.2093401556277827e+00 1.3897756345322131e+01 5.4608180596003777e+00 0 0 0
245 2 5.9162333898061821e+00 1.4563276337179952e+01 6.1438023417223704e+00 0 0 0
246 2 5.5100053421526907e+00 1.3962801228826743e+01 4.7602010631384974e+00 0 0 0
247 1 1.0224365539135161e+00 1.5172265445547067e+01 2.3935427101234041e+00 0 0 0
143 2 4.2358180313864295e+00 9.0948305629069974e+00 3.3753084163274061e-01 0 0 0
249 2 1.7813884979861170e+00 1.5322451132103780e+01 1.7720111858136014e+00 0 0 0
251 2 5.8375470035474022e+00 1.5861316128004340e+01 1.0387041667475461e+00 0 0 0
119 2 8.8056639540248571e-01 1.0712352680094856e+01 4.5233075052228786e+00 0 0 0
262 1 8.3743032485432813e+00 1.7542779302261952e+01 3.9060547427213250e+00 0 0 0
263 2 9.3429408662442714e+00 1.7622135256545882e+01 3.9872264483305773e+00 0 0 0
264 2 8.1227169621317419e+00 1.8321911052162932e+01 3.3437508789359538e+00 0 0 0
271 1 7.5874616195882316e+00 1.9303867025936722e+01 1.7609069296984732e+00 0 0 0
272 2 7.7340953103500105e+00 5.3259111423525707e-01 1.9636449353281091e+00 0 0 0
273 2 6.6163566338194562e+00 1.9267650568615515e+01 1.4797525321682257e+00 0 0 0
274 1 8.6864509582313172e+00 1.4376121739144608e+01 5.1900250461867001e+00 0 0 0
275 2 9.0868896884192800e+00 1.5191922153735963e+01 5.5918900758342440e+00 0 0 0
276 2 7.6769730292121672e+00 1.4502893283924962e+01 5.1659148596285380e+00 0 0 0
675 2 1.9091016066710496e+00 5.7849501142411190e+00 5.7651251484478538e-01 0 0 0
278 2 8.9819580869543181e+00 1.9681583949863448e+01 5.8614491829831792e+00 0 0 0
279 2 8.8696655391165233e+00 1.9316277146525128e+01 7.4049345728197062e+00 0 0 0
283 1 7.2440126408385881e+00 1.5362185709104491e+01 2.2539989601977175e+00 0 0 0
284 2 7.6300721158478462e+00 1.6052741303244634e+01 2.8441148101782678e+00 0 0 0
285 2 7.6118464620561319e+00 1.4462599960389140e+01 2.4109082815012686e+00 0 0 0
34 1 5.5689027595972478e+00 2.8401370426461230e+00 4.3907106238412752e-01 0 0 0
325 1 2.5632913714533503e+00 3.0572091647510158e+00 7.1708177722822484e+00 0 0 0
326 2 2.3745711102047302e+00 3.9117950072755181e+00 6.7821887037235618e+00 0 0 0
327 2 3.4678151677710249e+00 3.0397299141672107e+00 7.5481554431364266e+00 0 0 0
329 2 4.5396518983270715e+00 6.5221552214819689e-01 9.6499702395037747e+00 0 0 0
337 1 4.8918395826677177e+00 6.0182391021243626e+00 8.5150723706658251e+00 0 0 0
338 2 4.7519433332630934e+00 5.1869547366220221e+00 9.0338826844083577e+00 0 0 0
339 2 4.4453727188399874e+00 6.6804240931600702e+00 9.0763714071961097e+00 0 0 0
343 1 9.4910392198635818e-01 6.3775620227396193e+00 8.7844919537826431e+00 0 0 0
344 2 1.2445458118958479e+00 5.9330552460430157e+00 9.5492669293517523e+00 0 0 0
345 2 1.4362746047922730e+00 5.9933996141397179e+00 8.0053862595142284e+00 0 0 0
355 1 9.0078738396912528e-01 2.4560543534356500e+00 9.1292495161610017e+00 0 0 0
356 2 1.1721114377065791e+00 1.5655537244143838e+00 9.4156260872641901e+00 0 0 0
357 2 1.4853201754903385e+00 2.6445360647032654e+00 8.3840182834971078e+00 0 0 0
358 1 5.4021150188501208e+00 2.7824812951953564e+00 7.3859522360573635e+00 0 0 0
359 2 5.7077268642500085e+00 3.5380553220958633e+00 6.7765514781540972e+00 0 0 0
360 2 5.5131333713271156e+00 1.9848804589353617e+00 6.8007530396229603e+00 0 0 0
361 1 9.1777457165807874e+00 3.0425607935774166e+00 7.3353924889274928e+00 0 0 0
362 2 8.8304181269791346e+00 2.5129768298512678e+00 6.6184927945349949e+00 0 0 0
363 2 8.5595542429115579e+00 2.8476378101327962e+00 8.1082220693231779e+00 0 0 0
254 2 8.6279626340167095e+00 1.5660661387910285e+01 1.0751753621052409e+00 0 0 0
379 1 7.4868613538895961e+00 6.5285056039290446e+00 8.9137251973660696e+00 0 0 0
380 2 7.5233106053773042e+00 7.4992231714319537e+00 8.9942907344293062e+00 0 0 0
381 2 6.5589829169163449e+00 6.3780803798825962e+00 8.6425350656695255e+00 0 0 0
391 1 7.3141440261791812e+00 2.4213841355607220e+00 9.3333739067348223e+00 0 0 0
392 2 7.3873220844133503e+00 3.1915400802620102e+00 9.9179272852731479e+00 0 0 0
393 2 6.5313138356411553e+00 2.5874729857984042e+00 8.7364798583352492e+00 0 0 0
19 1 1.0350547925921485e+00 6.1569335619221786e+00 1.9020836736269926e+00 0 0 0
433 1 2.5297780606656821e+00 9.4149527706226781e+00 6.9318832870530303e+00 0 0 0
434 2 2.4808853100261792e+00 1.0409327543058140e+01 6.6854391899797463e+00 0 0 0
435 2 1.7631672006144861e+00 9.3004104890715915e+00 7.5418802541280048e+00 0 0 0
171 2 9.1769252776401444e+00 1.3120436583178831e+01 6.1532593589350526e+00 0 0 0
445 1 4.9104419023093469e+00 1.2791056654327981e+01 8.4001630784761581e+00 0 0 0
446 2 4.5805310500463499e+00 1.3508201713304567e+01 8.9888387044116875e+00 0 0 0
447 2 4.2537431305313644e+00 1.2680517883257272e+01 7.6367779745639490e+00 0 0 0
608 2 7.9165208196150285e+00 1.4846009832074335e+01 9.0953281707675195e+00 0 0 0
451 1 8.6656043384782377e-01 1.2599257558038948e+01 8.9538140156483141e+00 0 0 0
452 2 8.3298469530080776e-01 1.3609597895761185e+01 9.1155597816244303e+00 0 0 0
463 1 5.8911458442261622e-01 8.9140851694473664e+00 8.7524129707554277e+00 0 0 0
465 2 7.1292773312711533e-01 7.9100615208742848e+00 8.7675050565237882e+00 0 0 0
466 1 5.2803369834920693e+00 9.3274251188792299e+00 7.2851274552503726e+00 0 0 0
467 2 5.4789815504761394e+00 8.5716039597832641e+00 6.7127117537246068e+00 0 0 0
468 2 4.3230054731272052e+00 9.3568248316763203e+00 7.3297600716551852e+00 0 0 0
557 2 4.4229705657227614e+00 1.6306909960969172e+01 1.0099094799488597e+01 0 0 0
470 2 9.0664338816156835e+00 1.0814442299382893e+01 6.9491443376547926e+00 0 0 0
471 2 8.3865329343975699e+00 9.7871737387274518e+00 7.9459883041147465e+00 0 0 0
573 2 1.2122121683558793e+00 1.6313886031871228e+01 9.6505768224509989e+00 0 0 0
487 1 7.5262588011132463e+00 1.2944625505927608e+01 8.5905251914809160e+00 0 0 0
488 2 8.1252867350689044e+00 1.2681178644017814e+01 7.8269567287846300e+00 0 0 0
489 2 6.5992316229180332e+00 1.2747515967053607e+01 8.2765007461933209e+00 0 0 0
499 1 7.2123942394969767e+00 9.4526110854478187e+00 9.0672581263476442e+00 0 0 0
500 2 7.1250750793490747e+00 9.8701689963322075e+00 9.9583283827475189e+00 0 0 0
501 2 6.3298850377960267e+00 9.6341327693839371e+00 8.7029503129655019e+00 0 0 0
443 2 1.1204492098571412e+00 9.8666865409436273e+00 9.9255397644007601e+00 0 0 0
927 2 8.5901885707795191e+00 1.8855824805434324e+01 5.4909786991425835e-01 0 0 0
541 1 3.0231245292326068e+00 1.6107195151716414e+01 7.1140029379979630e+00 0 0 0
542 2 2.5485169555936089e+00 1.5830697624500075e+01 7.8915699150698959e+00 0 0 0
543 2 2.5997342893329489e+00 1.5627013459959569e+01 6.3251545350525502e+00 0 0 0
553 1 5.2284388322845183e+00 1.9388441574605199e+01 8.5118661872453778e+00 0 0 0
554 2 6.1365710118975940e+00 1.9621848488600186e+01 8.3044550264399124e+00 0 0 0
555 2 4.7684056768489640e+00 1.9132989501122765e+01 7.6156991163246834e+00 0 0 0
277 1 9.1981943501690111e+00 1.9013352850772630e+01 6.5405920278505576e+00 0 0 0
559 1 1.7139580907027896e+00 1.9547817945779560e+01 8.7696750495055689e+00 0 0 0
560 2 2.5086764806054558e+00 1.9382662569663466e+01 8.2401496508678669e+00 0 0 0
561 2 1.8097610661975589e+00 1.8800447192047407e+01 9.4326863327739705e+00 0 0 0
571 1 9.7073105196771492e-01 1.5500019138040187e+01 9.1572112592358970e+00 0 0 0
574 1 5.7214672905517352e+00 1.5845470427979452e+01 7.1927720091409491e+00 0 0 0
575 2 6.2032287238679107e+00 1.5949103094606428e+01 8.0611400324139382e+00 0 0 0
576 2 4.7844790182913943e+00 1.5754151830668043e+01 7.3385272883118509e+00 0 0 0
577 1 9.5323732246073902e+00 1.6372962588698535e+01 6.8751479446179067e+00 0 0 0
578 2 9.2610221787332616e+00 1.7361156331807685e+01 6.7758699004872485e+00 0 0 0
579 2 8.8551047137603618e+00 1.5901127753449261e+01 7.5047765307197283e+00 0 0 0
469 1 9.0328967653881040e+00 9.8347669414313970e+00 7.2078221197364885e+00 0 0 0
595 1 7.9041777110464011e+00 1.9780306231359880e+01 8.5920019664098550e+00 0 0 0
596 2 7.8622990052095423e+00 9.1569428239568795e-01 8.9978032702402793e+00 0 0 0
597 2 7.8224346408395959e+00 1.9144235013108251e+01 9.3333222344052089e+00 0 0 0
607 1 7.6245399987859477e+00 1.5686773425390633e+01 8.7994297482024528e+00 0 0 0
479 2 7.9425249926461303e+00 1.2114109295372586e+01 1.0048629887212799e+01 0 0 0
1 1 2.9916488573840825e+00 2.7641896810138999e+00 5.7498234808254456e-01 0 0 0
248 2 9.3286605146407731e-01 1.4143547930376943e+01 2.3950489315485299e+00 0 0 0
891 2 3.4914702143630372e+00 1.8846750601635549e+01 4.1472720019357912e-01 0 0 0
328 1 4.2091237871352156e+00 1.3769027873738926e+00 1.0287662121098203e+01 0 0 0
444 2 1.1132322384663267e+00 1.1411819745153734e+01 1.0046389782288822e+01 0 0 0
372 2 7.8824977772314613e+00 5.3938339479048247e+00 1.0175025614219017e+01 0 0 0
711 2 8.6656961530921475e+00 5.8807836267413611e+00 4.6572670270085914e-01 0 0 0
210 2 5.1569712714778548e-01 7.4247574961708436e+00 5.2257068210634525e+00 0 0 0
32 2 5.2355751421198726e-01 2.5456071855797187e+00 1.7331556281112044e+00 0 0 0
217 1 2.7459568041997113e+00 1.5797696514672777e+01 2.8893951739181567e-01 0 0 0
258 2 9.6965917664633405e+00 1.4028342178943124e+01 3.6983865413004993e+00 0 0 0
674 2 2.6198092599998151e+00 4.4661284806969466e+00 2.3653552933928823e-01 0 0 1
219 2 2.4586399670572621e+00 1.6752899260576484e+01 2.1444284412516074e-01 0 0 0
37 1 9.4775645255556231e+00 2.7885945703161927e+00 2.5745443213948571e-01 0 0 0
341 2 3.3681017075693926e+00 4.0660706400708442e+00 1.0389321685206321e+01 0 0 0
340 1 4.2434485861882996e+00 4.0479209717593037e+00 1.0110300512851103e+01 0 0 0
253 1 9.1642119920928593e+00 1.5949760676943773e+01 3.2481597847314969e-01 0 0 0
556 1 4.4696257402746209e+00 1.7232075316919964e+01 1.0364502766074294e+01 0 0 0
544 1 4.2838734993543097e+00 1.4553156433401785e+01 1.0292959959205550e+01 0 0 0
889 1 2.7745024235828071e+00 1.8675030520489702e+01 2.0312346206124531e+01 0 0 0
533 2 4.0400408377837316e-01 7.4777814768021669e+00 1.2183312724216000e+01 0 0 0
550 1 1.8996005522970965e+00 1.7688862071808266e+01 1.0496456235347305e+01 0 0 0
145 1 8.9207142229874226e+00 9.5318656654915408e+00 2.0319994875299315e+01 0 0 -1
39 2 9.3596169872504795e+00 2.3155160092131832e+00 1.9955926373446040e+01 0 0 0
707 2 9.4335929021064580e+00 1.0616007600466200e+00 1.7965581621462320e+01 0 0 0
331 1 5.8563095034900128e+00 4.9322707612560359e+00 1.2378125412064765e+01 0 0 0
332 2 6.7549938479195113e+00 4.6853682928042186e+00 1.1940311058435251e+01 0 0 0
333 2 5.1646563272928843e+00 4.4844642468887415e+00 1.1832790084169842e+01 0 0 0
546 2 4.9139292996891344e+00 1.4378582878582645e+01 1.1031633241424586e+01 0 0 0
336 2 1.0578463921386820e+00 4.8900078335908708e+00 1.1463739454884790e+01 0 0 0
370 1 7.9649586583862000e+00 4.6206989728544681e+00 1.0776697959116092e+01 0 0 0
346 1 1.9780606336428042e+00 1.2956016281507043e+00 1.1596607451123273e+01 0 0 0
347 2 2.7873471480420222e+00 1.2610226254258443e+00 1.1004267587672876e+01 0 0 0
348 2 1.9893078689156540e+00 2.0676624843046274e+00 1.2212303197327671e+01 0 0 0
349 1 3.1455943090863778e+00 5.8396852990747403e+00 1.3500748512198049e+01 0 0 0
350 2 2.8351415760643839e+00 6.4749823653297529e+00 1.2784687446603366e+01 0 0 0
351 2 3.0005795360860454e+00 4.9082057301973716e+00 1.3177689174661543e+01 0 0 0
352 1 6.1077032737947876e+00 9.4965356644873233e-01 1.2119228816223348e+01 0 0 0
353 2 7.0554306559490811e+00 1.0029367650237946e+00 1.1912015437612895e+01 0 0 0
354 2 5.9543020664963171e+00 1.9821132059412012e+01 1.2556755532305090e+01 0 0 0
925 1 9.4339733835934307e+00 1.8753745933245359e+01 2.0470823083141525e+01 0 0 0
382 1 8.6628362721547720e+00 1.3202486581944222e+00 1.1852820249050906e+01 0 0 0
383 2 8.9749873571401668e+00 5.2194736481628667e-01 1.2307948169085170e+01 0 0 0
586 1 8.1454317087694399e+00 1.7796954276056798e+01 1.0653072740252254e+01 0 0 0
385 1 9.2010075956901343e+00 5.8596730593584674e+00 1.3371417381617928e+01 0 0 0
386 2 9.0093346263249021e+00 4.9033403634782395e+00 1.3332529435429603e+01 0 0 0
387 2 8.5435860895027567e+00 6.1450430557455444e+00 1.4006922058304170e+01 0 0 0
836 2 4.8918579711816623e-01 1.1162882333318635e+01 1.9011414247010485e+01 0 0 0
109 1 2.5367572222009138e+00 9.6671386283601173e+00 2.0561738070633069e+01 0 0 -1
439 1 5.9604172098558532e+00 1.1308366396116130e+01 1.2316717524723723e+01 0 0 0
440 2 5.8847091634948203e+00 1.2249552697523640e+01 1.2573101340321305e+01 0 0 0
441 2 5.2130416513210891e+00 1.1105743160325737e+01 1.1667785531183402e+01 0 0 0
384 2 9.2093476595582331e+00 1.3628073221749464e+00 1.1003586298533946e+01 0 0 0
454 1 2.0413341003015093e+00 7.8609661073481725e+00 1.1908710804879055e+01 0 0 0
455 2 2.6956937384160273e+00 7.9438658502087538e+00 1.1111884023197923e+01 0 0 0
456 2 2.2706051557046334e+00 8.6366582827368639e+00 1.2431067481895482e+01 0 0 0
457 1 2.9222171490395281e+00 1.2365276425652926e+01 1.3948064194123434e+01 0 0 0
458 2 3.7661836693610953e+00 1.2709583646540089e+01 1.4285785198920369e+01 0 0 0
459 2 2.2119402746612780e+00 1.2457721423575412e+01 1.4649130086834557e+01 0 0 0
460 1 5.5103342131706281e+00 7.4064410081333047e+00 1.2405782179425129e+01 0 0 0
461 2 5.5881562225831081e+00 6.4480015326585596e+00 1.2535256024810906e+01 0 0 0
462 2 6.4402587736432135e+00 7.7757742459027730e+00 1.2127826126616766e+01 0 0 0
513 2 2.7024809365674002e-01 1.1129486579567130e+01 1.1850394336341761e+01 0 0 0
480 2 7.4397531839390858e+00 1.1189672908767575e+01 1.1346312256751562e+01 0 0 0
144 2 5.4947002772246796e+00 1.0113911899863606e+01 2.0053218493544065e+01 0 0 0
490 1 8.2964997212819238e+00 8.2685651519794412e+00 1.1973136716920054e+01 0 0 0
491 2 8.5857525982246674e+00 7.4258067399634422e+00 1.2491165495790126e+01 0 0 0
492 2 8.5852197980885379e+00 8.9517138409576269e+00 1.2554805504324463e+01 0 0 0
493 1 9.5680934755432148e+00 1.2500407871135494e+01 1.3742792857768150e+01 0 0 0
494 2 8.9553535214677691e+00 1.2856505405112657e+01 1.4447203286937079e+01 0 0 0
495 2 9.2916650122150131e+00 1.2752491402938478e+01 1.2864299597936101e+01 0 0 0
474 2 9.5153551610417448e+00 8.1475520897247229e+00 1.0702830104848916e+01 0 0 0
330 2 4.8749640619345165e+00 1.2534572256702305e+00 1.1028723014183182e+01 0 0 0
817 1 9.6037430772094456e+00 1.2134118835964919e+01 2.0214200649867372e+01 0 0 0
749 2 6.3556403392968441e-01 8.9955745070833193e-01 1.9129723005006596e+01 0 0 0
438 2 4.5245223041882756e+00 7.8330250998652220e+00 1.1064823199186987e+01 0 0 0
551 2 1.4222747212253835e+00 1.7800767139672399e+01 1.1375343569170559e+01 0 0 0
547 1 6.0823088749962455e+00 1.7969603241963046e+01 1.2497160056381626e+01 0 0 0
548 2 5.3396800579167225e+00 1.7678806713237609e+01 1.1824877436870549e+01 0 0 0
549 2 6.0014737213951044e+00 1.7274346419732360e+01 1.3138349550766611e+01 0 0 0
449 2 3.0906731230076825e+00 1.0829614923825915e+01 1.0481519194762619e+01 0 0 0
562 1 2.4699247225711849e+00 1.4054323238706566e+01 1.2061736319439012e+01 0 0 0
563 2 1.5191078937225881e+00 1.4210671683649741e+01 1.2144967101846726e+01 0 0 0
564 2 2.6877881056632225e+00 1.3332577834169371e+01 1.2765363004504058e+01 0 0 0
565 1 2.7158699003864086e+00 1.8969495555751418e+01 1.3475651803561302e+01 0 0 0
566 2 2.6172977951009222e+00 1.9760786328404595e+01 1.2911511256362653e+01 0 0 0
567 2 3.3292317807111500e+00 1.9161422020747434e+01 1.4208920950922495e+01 0 0 0
568 1 5.9761212635863137e+00 1.4172242436587151e+01 1.2410724541494982e+01 0 0 0
569 2 6.9423732088716550e+00 1.4406635179152047e+01 1.2209370669306780e+01 0 0 0
570 2 5.8293387707754158e+00 1.4722754734612352e+01 1.3200593859062337e+01 0 0 0
110 2 2.1135309295884879e+00 9.1039055439389358e+00 1.9875163704502064e+01 0 0 0
486 2 9.6523054423267816e+00 1.1058867977997757e+01 1.0510640144029784e+01 0 0 0
588 2 7.7583460620812650e+00 1.8075706789102526e+01 1.1474263894719268e+01 0 0 0
598 1 8.5890807749864546e+00 1.4754580043963822e+01 1.1682337971332222e+01 0 0 0
932 2 8.0477049243390422e+00 1.6511502547232134e+01 1.6606962789137413e+01 0 0 0
600 2 8.9729094825401194e+00 1.5144937078134097e+01 1.2497577694820190e+01 0 0 0
601 1 9.3807310994426238e+00 1.8908480137092418e+01 1.3311628506698318e+01 0 0 0
603 2 8.5353908717747053e+00 1.8987625974151261e+01 1.3862029782024564e+01 0 0 0
442 1 1.4679085608688698e+00 1.0573364726597921e+01 1.0530626280606933e+01 0 0 0
926 2 9.2858519147756819e+00 1.7782890434883338e+01 2.0450525685490668e+01 0 0 0
649 1 2.4608205697645138e+00 2.9531285156063536e+00 1.3572731747184864e+01 0 0 0
650 2 3.3763439188428270e+00 2.6507753638784264e+00 1.3629635449974131e+01 0 0 0
651 2 2.0701724534962471e+00 2.5622525230129440e+00 1.4299576024530355e+01 0 0 0
652 1 4.4381612640063279e+00 1.2887585984834289e+00 1.7326514557639562e+01 0 0 0
653 2 4.4222201955000235e+00 2.2892711664084788e+00 1.7283128991589805e+01 0 0 0
654 2 5.0414506280307112e+00 1.0744043006778663e+00 1.8085098928242225e+01 0 0 0
655 1 5.7541331594140344e+00 4.8748395385827790e+00 1.9002874804883994e+01 0 0 0
656 2 5.8892807505234019e+00 5.8265223712111975e+00 1.9103376540255901e+01 0 0 0
657 2 6.6571763496593483e+00 4.5379022242605780e+00 1.8673494057118837e+01 0 0 0
658 1 1.2621500787412476e+00 4.1499185987350611e+00 1.7484974799717286e+01 0 0 0
659 2 1.1362430262482073e+00 3.2735105865344676e+00 1.7025858370884187e+01 0 0 0
660 2 1.1768257769425932e+00 4.8109477389989506e+00 1.6797648617511761e+01 0 0 0
661 1 4.8929920493956791e+00 5.8826434057915282e+00 1.5589277264117570e+01 0 0 0
662 2 4.5806843492616274e+00 5.0307724394745206e+00 1.6025427198541585e+01 0 0 0
663 2 4.3064151856065394e+00 5.9354800932897671e+00 1.4813181962232816e+01 0 0 0
664 1 4.0115450978066303e+00 4.1309378989697985e+00 1.7084193617778489e+01 0 0 0
665 2 3.0495533699699306e+00 4.3277700080659978e+00 1.7228658021227936e+01 0 0 0
666 2 4.5092472529739753e+00 4.5842452175604480e+00 1.7832725239259844e+01 0 0 0
667 1 8.5557210079435486e-01 6.0005932338961125e+00 1.5516923363449171e+01 0 0 0
668 2 1.0811289246180502e+00 6.9079664302340040e+00 1.5737731394080031e+01 0 0 0
669 2 1.5536677344480838e+00 5.9097571665699249e+00 1.4818351924903389e+01 0 0 0
670 1 2.3101786822255952e+00 1.2705421683972886e+00 1.8916152390080846e+01 0 0 0
671 2 2.7977681467754323e+00 1.8994073397521813e+00 1.9587113900313120e+01 0 0 0
672 2 3.0082128831571859e+00 1.2566679287079090e+00 1.8227544578168086e+01 0 0 0
676 1 6.2359843965583739e+00 8.6304718427273164e-01 1.9249042889672303e+01 0 0 0
677 2 6.2344049069461978e+00 1.6201732865505500e+00 1.9882764511127256e+01 0 0 0
678 2 7.1626526821079013e+00 8.0825071719121611e-01 1.8993595917759023e+01 0 0 0
679 1 8.6247101510152024e-01 2.0647061919294822e+00 1.5756409579248789e+01 0 0 0
587 2 9.0854490673914228e+00 1.7629790909707879e+01 1.0846914327929518e+01 0 0 0
681 2 9.3367152722588664e-01 1.0810409707905069e+00 1.5754685695961690e+01 0 0 0
682 1 5.0758348179429529e+00 2.7373481204051138e+00 1.3933622917057104e+01 0 0 0
683 2 5.1957984246398521e+00 3.6714661619955757e+00 1.3643874485588304e+01 0 0 0
684 2 5.5757090837097163e+00 2.3641161912531468e+00 1.3147080573708154e+01 0 0 0
685 1 9.2701323502066550e+00 3.3650409423168028e+00 1.3671341223098409e+01 0 0 0
687 2 9.1049760982692778e+00 2.6089240416986703e+00 1.3114185972932477e+01 0 0 0
694 1 7.7832462191965819e+00 4.2109693472077119e+00 1.7548409843105993e+01 0 0 0
695 2 8.7535609542306538e+00 4.1960978589034941e+00 1.7525001128830844e+01 0 0 0
696 2 7.4911762427545732e+00 3.4840695542265805e+00 1.6939141481718899e+01 0 0 0
703 1 7.5805516585455379e+00 6.3740912226243580e+00 1.5626574753568816e+01 0 0 0
704 2 7.7041445844030418e+00 5.8328215582547411e+00 1.6406731209761986e+01 0 0 0
705 2 6.6006475168857204e+00 6.1669580790247380e+00 1.5309261731727311e+01 0 0 0