LAMMPS data file via write_data, version 8 Apr 2021, timestep = 310000

3072 atoms
2 atom types

0.19258655489323773 29.947607445108122 xlo xhi
0.13727277021754888 28.203193229779764 ylo yhi
0.10889631660789613 27.302548683394736 zlo zhi
10.107744588848437 10.208196204425779 7.18544517350257 xy xz yz

Masses

1 16
2 2

Atoms # atomic

1 1 7.564818606002813 5.0623314299606035 4.010588759503435 0 0 0
2 2 6.865933002838339 4.449590822783916 3.9221874308157187 0 0 0
3 2 7.2438779459662195 5.928322746024477 4.397955401135303 0 0 0
4 1 10.021545438060283 6.717247244991716 10.824021066109776 0 0 0
5 2 10.561562524726941 6.241782963461137 11.504949486369213 0 0 0
6 2 9.738238826411019 7.5845682613331125 11.110838254386794 0 0 0
7 1 10.106280656920111 12.099826529807714 4.115666332413939 0 0 0
8 2 10.657344211844729 11.537036118739163 4.681768558174487 0 0 0
9 2 9.932041910136894 12.955315985544653 4.573519133506988 0 0 0
10 1 12.516592364071258 14.246904766617176 10.868243167804373 0 0 0
11 2 13.28983349147376 14.372259871241162 10.272983707740757 0 0 0
12 2 11.867476991165375 13.745914485765129 10.441434142279718 0 0 0
13 1 14.975847269064898 5.257416343558482 4.289934784584848 0 0 0
14 2 15.611579539348103 4.939572898666944 5.0075974525574845 0 0 0
15 2 14.57885431758087 6.098338669668125 4.670672050577163 0 0 0
16 1 17.380241078920886 7.092880155327268 10.845690069176126 0 0 0
17 2 17.455190750090317 6.501246672151009 11.670209296045945 0 0 0
18 2 18.31495211989177 7.308495298893753 10.644699100689445 0 0 0
19 1 17.60930230737996 12.187840044271853 4.061672985685191 0 0 0
20 2 18.39612186464282 12.379160622131423 3.5402752373740936 0 0 0
21 2 17.920130536431444 12.046171447115775 4.963964874344384 0 0 0
22 1 20.05219818009691 14.171777944148836 11.03501461445272 0 0 0
23 2 20.7293964565308 14.426363657665684 10.395717707897864 0 0 0
24 2 19.798002925638087 14.985090491405414 11.529634707559527 0 0 0
25 1 11.60355620991827 8.100247650525583 6.6428820096489005 0 0 0
26 2 10.91659749892537 8.618973719884057 6.228174808381834 0 0 0
27 2 11.012367533955674 7.4995240202457065 7.166309637393348 0 0 0
29 2 14.671662070419243 9.550062305676809 12.656657578357065 0 0 0
30 2 13.500972322193782 10.706783291027524 12.84681540335936 0 0 0
75 2 0.9206310471756917 1.272183088360254 1.2346224995941524 0 0 0
38 2 18.14863983005229 8.434657733540973 6.1279799296281325 0 0 0
39 2 18.477853676357448 7.341599550177956 7.152245478639462 0 0 0
49 1 4.939358714359351 3.768678793655773 2.892793007478883 0 0 0
50 2 5.438640337472902 2.8875680937715362 2.674974483891321 0 0 0
51 2 4.183373866991602 3.6376346146264145 3.486550897583018 0 0 0
52 1 7.9339145806855 5.415175485606229 9.814175517269579 0 0 0
53 2 7.370242971946185 5.976127971964453 9.31032693428264 0 0 0
54 2 8.718192225912942 5.956591705252838 10.114524026425896 0 0 0
55 1 7.868467432104165 10.687079628648105 2.8486171389048445 0 0 0
56 2 8.14901297905399 9.775752717578056 2.5498987952351864 0 0 0
57 2 8.594891009399715 11.221721505065393 3.2861463503234654 0 0 0
58 1 10.467187319855206 12.734866538603702 9.702429761313901 0 0 0
59 2 10.222473555500999 12.995087343579291 8.77122627827784 0 0 0
60 2 10.897088135230069 11.856450543376939 9.543024723223644 0 0 0
61 1 12.816283857923503 3.724212716110847 3.042569252063804 0 0 0
62 2 13.420024096669826 4.26241527114991 3.594369523144719 0 0 0
63 2 12.437230517832688 4.390852387976649 2.3615188972252703 0 0 0
64 1 15.274025872308643 5.489873731091114 9.927630298071103 0 0 0
65 2 15.921935425517761 6.042861565909458 10.309171546476895 0 0 0
66 2 15.709713935204002 4.647913290915723 9.740079792106672 0 0 0
67 1 15.243365341830808 10.508594671320187 2.932187944371218 0 0 0
68 2 15.905365272726044 10.924350676666037 3.481316560457616 0 0 0
69 2 15.546418355373223 9.66338920285156 2.508192658009333 0 0 0
70 1 18.007301515206652 12.70946706440995 10.113298047551725 0 0 0
71 2 17.72066389626005 12.880291081273391 9.216304650630333 0 0 0
72 2 18.7525007985134 13.27572063412118 10.27033063073946 0 0 0
145 1 6.9380921635981405 2.101631419609283 5.34818813361326 0 0 0
81 2 4.549162855904003 7.383179261623756 0.666972690624499 0 0 0
84 2 6.947421890816023 9.153860736054796 7.6215174436510384 0 0 0
87 2 8.425201008488793 1.3966828136295126 1.468355511497613 0 0 0
216 2 20.988299669195996 10.858375131677832 8.83345382609368 0 0 0
90 2 11.324774718347834 3.3188640370480247 6.968303971024345 0 0 0
93 2 11.909670732237357 7.339384897647789 0.7147892578331918 0 0 0
94 1 13.588372702332828 9.73954004643713 7.540844215325151 0 0 0
95 2 14.242922130810838 9.140852086407374 7.982434221845722 0 0 0
96 2 12.834284144138664 9.102142951376619 7.263793172552551 0 0 0
97 1 5.330900816066284 4.554482929472122 6.0504256366419 0 0 0
98 2 5.406603696369953 5.328332919078577 6.64146997927795 0 0 0
99 2 4.609554702002754 3.9862622260136207 6.391449970569612 0 0 0
100 1 8.090036939738848 6.18545088999332 12.947028985898388 0 0 0
101 2 7.700849790293925 6.708221136039118 12.174512073244616 0 0 0
102 2 8.704218442491841 5.485525237992901 12.604136096757818 0 0 0
103 1 7.968712736942479 11.341071968991045 6.252817612711757 0 0 0
104 2 7.658770706007377 11.972950679257458 5.551263898922702 0 0 0
105 2 7.176414886825969 10.91029617527223 6.590299658067802 0 0 0
106 1 9.968609155999044 13.606715918839765 12.719539037244504 0 0 0
108 2 10.64487266522547 13.034889649281569 12.349086859628589 0 0 0
109 1 12.758943508907128 4.212784897105609 6.381740187478481 0 0 0
110 2 13.279276434673134 3.550717253027355 5.877066353917797 0 0 0
111 2 12.456740691693927 4.968402811033239 5.847502102093815 0 0 0
112 1 15.6592063551843 5.917708686744224 13.141919894215002 0 0 0
115 1 15.55361711072098 11.234122533927781 6.186525738359798 0 0 0
116 2 14.810118769008128 10.818093635962343 6.685865474707202 0 0 0
117 2 15.895183597571844 11.885653213919584 6.772485917376975 0 0 0
118 1 17.91842956587536 13.527915441455022 12.944404252648622 0 0 0
120 2 17.52111242397823 14.07648020047428 12.255360835061602 0 0 0
124 1 5.912733281855022 4.544035773036 11.327607348712824 0 0 0
125 2 6.717254713795183 4.763599430335277 10.833577488345167 0 0 0
127 1 5.813546702314455 10.113815378316238 4.178632762368743 0 0 0
129 2 6.68542080934997 10.393211279206284 3.7955250731525827 0 0 0
43 1 21.92355920050922 15.245620450393893 6.27438239176654 0 0 0
132 2 9.080588279379185 12.222967640845482 10.491119681139379 0 0 0
133 1 10.878838519606356 2.509783477854832 4.343101521007685 0 0 0
135 2 11.545433395959263 3.0658083235292968 3.8526674512209396 0 0 0
136 1 13.51579461323286 4.236611435950054 11.52493736549755 0 0 0
137 2 14.233589426024272 4.826607756572208 11.081262974564321 0 0 0
138 2 13.056944419538615 4.886260972293011 12.096649622813622 0 0 0
139 1 13.212767686654882 9.812864861995509 4.592626893131041 0 0 0
140 2 13.991630113956935 10.039925233599307 4.084680043294247 0 0 0
141 2 13.682371391806806 9.165646976840122 5.161636513536707 0 0 0
142 1 15.639941222540271 11.928773833317326 11.129386774430975 0 0 0
143 2 16.39760537759691 12.413471383070073 10.711432394792341 0 0 0
144 2 16.13834241654592 11.19028400635872 11.575173649556179 0 0 0
147 2 6.5870037523721265 2.9292043784379374 5.788280609861717 0 0 0
107 2 10.473768493360959 14.19750618149698 13.309165471839671 0 0 0
149 2 9.926374348214171 3.9443437032832342 11.016095419350082 0 0 0
151 1 9.303775349150667 9.18539589168136 5.319215783521793 0 0 0
152 2 8.89765004631408 10.131023996609052 5.606241937671745 0 0 0
153 2 9.753395767944747 9.300192511594059 4.445440999201715 0 0 0
154 1 12.281702479149066 11.31333128123962 11.783298712953597 0 0 0
155 2 11.761475818524342 10.489770850713501 11.719888280303666 0 0 0
156 2 12.712036547265171 11.37174862078779 10.904459985914347 0 0 0
157 1 14.383474485738828 2.208397798191562 5.106815791550643 0 0 0
159 2 14.688623505557501 2.4394495178981366 4.2182231039373566 0 0 0
160 1 16.795992583622574 3.636780547729433 11.979514426730207 0 0 0
161 2 16.49125394348501 4.377208477255074 12.526447485545516 0 0 0
163 1 16.897933156096375 9.134158514897328 5.333939123404316 0 0 0
164 2 16.537273076146498 9.91646540771518 5.74604546220182 0 0 0
165 2 17.40383626196416 9.442508443208505 4.551337706140449 0 0 0
166 1 19.803550445996777 10.997946854263205 11.835001908515402 0 0 0
167 2 19.316534339171525 11.816275933452104 12.089190043134764 0 0 0
168 2 20.13524277179964 11.258316798352356 10.951883852851722 0 0 0
169 1 9.191697907915943 4.245453542224828 5.8768580423737875 0 0 0
170 2 9.883751203869323 3.707350179715703 5.3868493887653495 0 0 0
171 2 8.568369216178063 4.607945272451267 5.193866715020482 0 0 0
172 1 11.715846773989542 6.0813397072347515 12.804171233272736 0 0 0
175 1 11.574434164225927 11.196336282322914 6.328541085907683 0 0 0
176 2 12.348937464656007 10.829795007307547 5.797335566244348 0 0 0
177 2 11.964251100248346 11.99095069452205 6.688933377581858 0 0 0
178 1 14.11158389362653 13.328310276002838 13.137139677503578 0 0 0
179 2 13.298265136654368 13.48442237869609 12.592645403551229 0 0 0
180 2 14.683123936874452 12.858844170749313 12.482956454703572 0 0 0
181 1 16.63619541432185 4.328606376792443 6.345233873851411 0 0 0
183 2 17.076685932706948 5.0125609501124195 6.870989343738119 0 0 0
184 1 19.08928925967238 6.053194025616607 12.810158932749987 0 0 0
187 1 18.94495304523631 11.589281287438999 6.396838540169981 0 0 0
188 2 18.6639587413919 10.905631889458533 7.012624976639933 0 0 0
189 2 19.386551505689106 12.304744400569883 6.9620928570378116 0 0 0
190 1 21.985168113531476 13.246661657209476 12.723368975592217 0 0 0
192 2 21.19084140690287 13.503541106185304 12.255671055552755 0 0 0
193 1 8.42179505340529 2.4551216050128106 2.7754603307772223 0 0 0
194 2 7.714058139297453 2.1290223667328343 3.384496722407052 0 0 0
195 2 9.21808335998537 2.520742731002307 3.323952294731983 0 0 0
196 1 11.13581077069572 4.283873696211498 9.690490368063287 0 0 0
197 2 11.080507111638491 3.492338448167243 9.15824774609384 0 0 0
198 2 12.052307065915384 4.2684832773539805 10.016817843655511 0 0 0
199 1 11.09241793716266 9.536640621003865 2.9541111453437177 0 0 0
200 2 11.168999294837336 8.773596716525523 2.2897710257646313 0 0 0
201 2 11.86098744772869 9.510209295871155 3.487259373390912 0 0 0
202 1 13.617784839799606 11.789628923492126 9.50732825308555 0 0 0
203 2 14.474328589051625 11.988723625168436 9.930937992755798 0 0 0
204 2 13.646094855423241 10.95791779293512 9.054720841741815 0 0 0
205 1 15.933224861445812 2.9853656842206715 2.803331978874726 0 0 0
128 2 5.185908363165642 10.110236229273697 3.4495234654530385 0 0 0
208 1 18.30233904074107 4.356309329359307 9.845794732836302 0 0 0
209 2 17.775093043962947 4.241628306198545 10.658177388219961 0 0 0
211 1 18.28431598200639 9.65186887826215 3.0207666275006315 0 0 0
213 2 18.154134726242223 10.567467166104297 2.7696631878961497 0 0 0
214 1 21.12615547945458 11.60934361021593 9.374438328253841 0 0 0
217 1 5.719272777802671 1.4586614671477898 1.7503026550475516 0 0 0
220 1 8.222138148355155 3.1938372001349027 8.208751116301382 0 0 0
221 2 8.153299272228551 3.9977850786830897 8.723447063208877 0 0 0
222 2 8.43389082775306 3.5252743400614626 7.367111982934374 0 0 0
223 1 8.281774604051856 8.27805753262043 1.8245619307878176 0 0 0
224 2 8.982031753090128 7.621416710925785 2.120371556586873 0 0 0
226 1 10.923594057887296 10.160488871568605 8.907077362163644 0 0 0
227 2 11.38032575123375 9.431382152491793 9.344520993799438 0 0 0
228 2 11.335597891453531 10.369968561392865 8.030064398033934 0 0 0
229 1 13.25607519593579 1.0809297582655635 1.7703034355420146 0 0 0
857 2 15.687832752267695 15.930706624774754 7.007118692351641 0 0 0
231 2 13.236200058705137 1.9632180523061948 2.1784940410975397 0 0 0
232 1 15.666777840991466 3.154462673867621 8.749263143481683 0 0 0
234 2 16.077158996487537 3.4774536823034383 7.908051517725081 0 0 0
235 1 15.610742834317252 8.340149764879989 1.7111576148360272 0 0 0
237 2 16.313077735960103 7.810972863363061 2.1201882077285954 0 0 0
238 1 18.04387921299977 9.794967789622515 8.787242396978028 0 0 0
239 2 18.847747619977604 9.31911732947467 8.956870201361037 0 0 0
240 2 18.173245590681972 10.646496317910737 9.355271303222022 0 0 0
241 1 7.624977637115151 4.738606317776503 0.9314957724597371 0 0 0
242 2 7.7353589200784 4.132659213905096 1.632553389487383 0 0 0
243 2 6.935163022161256 5.402784881943732 1.1556569551845208 0 0 0
244 1 10.051249290235404 6.298360750629578 7.804523054680732 0 0 0
245 2 10.175976275330042 5.772807392490602 8.578467809123346 0 0 0
246 2 9.80923637770883 5.722707686283847 7.063873302975664 0 0 0
247 1 10.131000454367728 11.353390509431705 0.7947773172034353 0 0 0
248 2 9.487369594442445 11.980802677033422 1.2132297841223192 0 0 0
249 2 10.614414155756132 10.951290462847185 1.5635775546738635 0 0 0
250 1 12.468965810662299 13.490316419581566 7.740736106440027 0 0 0
251 2 12.887907937660088 12.929926180823168 8.398999558067795 0 0 0
252 2 13.249525250659438 13.97646994957667 7.321693469651411 0 0 0
253 1 14.976812966338336 4.6920900809970005 0.9546466240097501 0 0 0
254 2 15.421549157619133 4.159068162431933 1.6841873246234687 0 0 0
255 2 14.234639891510703 5.219376322886845 1.357107782172688 0 0 0
256 1 17.59934986034253 6.2882460399400415 8.185354432573536 0 0 0
257 2 17.741447569003427 5.86411042472532 9.040682010090096 0 0 0
258 2 16.767233510272092 6.812964033969099 8.242814743485004 0 0 0
259 1 17.69423782192396 11.701193266774808 1.2334582140246866 0 0 0
260 2 16.86445966973438 11.969429608817434 1.6005181401062694 0 0 0
262 1 20.11545678743562 13.531531815448828 7.683556759637659 0 0 0
263 2 20.616854504511373 13.102404912563006 8.3955535691911 0 0 0
264 2 20.702778896995262 14.174723004283107 7.208182418005679 0 0 0
265 1 9.870803760126257 6.336589127642285 2.710165259375754 0 0 0
266 2 9.194493927861581 5.667283132050565 2.9409709849825214 0 0 0
267 2 10.416833607316711 5.757116013115378 2.0350863582932313 0 0 0
268 1 12.258790239714715 8.104376142271843 10.038269143560358 0 0 0
269 2 12.489493471888606 7.489405802051354 9.29997644028911 0 0 0
270 2 11.487917616212123 7.6365889656102715 10.437690835978472 0 0 0
271 1 12.11552723205157 13.002437148660858 2.5569819854168956 0 0 0
272 2 12.760962898157906 13.116865683215993 3.3485545062760425 0 0 0
273 2 11.367832252195491 12.577485126812926 2.9890712790557985 0 0 0
274 1 14.57218805043759 14.935428568458587 9.58754348176401 0 0 0
275 2 14.194547649496297 15.72646313436722 9.206271904845966 0 0 0
276 2 15.460158614522031 15.198301625863555 9.805394082671192 0 0 0
277 1 17.06249762373912 6.1241621281703225 2.9161025153385465 0 0 0
278 2 16.301954455946674 5.84317956146296 3.4978604366578168 0 0 0
280 1 19.781703243268222 8.132462612201733 9.80037599484246 0 0 0
283 1 19.67859878288224 13.226227039954102 2.875210787468712 0 0 0
182 2 17.28650218983492 3.8887851179372674 5.722704622766755 0 0 0
288 2 21.9374254977429 15.616537886849622 9.101854147297631 0 0 0
289 1 5.930140522013548 6.864706086842986 1.703082770690034 0 0 0
290 2 5.554001225896169 6.6805945369142385 2.540707076678685 0 0 0
291 2 6.692982566535852 7.484161693144851 1.7980331542238412 0 0 0
292 1 8.539084049264895 8.528483235612187 8.492709195375488 0 0 0
293 2 9.014287997997348 7.642048398012905 8.152582664869712 0 0 0
294 2 9.198559863277293 9.249167686825729 8.70256378641567 0 0 0
295 1 8.56429025407998 13.70901492049629 1.8563704610857539 0 0 0
296 2 8.233076569279163 13.511256424141717 2.7489913318014247 0 0 0
298 1 11.027299216830656 15.764396499437861 8.670402744985815 0 0 0
299 2 11.525905178526346 15.011736946117303 8.197755893727708 0 0 0
301 1 13.341181718013319 6.651317990404135 2.1793543710843784 0 0 0
302 2 12.97579205251688 6.795970268402867 3.1074977750509016 0 0 0
303 2 14.163006428349084 7.281867892894346 2.0344047530896336 0 0 0
304 1 15.50450304536316 8.56529690509777 8.956250856331513 0 0 0
305 2 15.2288569643168 8.388562309442948 9.896023647604588 0 0 0
306 2 16.26787050815748 9.152671884872367 8.905903527550745 0 0 0
307 1 15.829769652391876 13.856598417264028 2.1161775044503925 0 0 0
311 2 19.105408761463142 14.902716686969347 8.164456995320073 0 0 0
313 1 3.83948265129857 4.92103228980413 0.828987306194337 0 0 0
315 2 4.399001786579155 4.570563344778726 1.654699430378979 0 0 0
316 1 6.428640532178297 6.423011470786499 7.73034979265536 0 0 0
317 2 6.737784207052483 6.871842667174729 6.903354117858899 0 0 0
319 1 6.43824265591843 11.501058755759448 0.683351216411962 0 0 0
321 2 7.173021879067345 11.304530319349862 1.3077675174235466 0 0 0
322 1 9.107460005796195 13.641381611059403 7.639231456400696 0 0 0
323 2 8.469964214610044 14.208028533511607 8.159647471628432 0 0 0
324 2 8.599572077332489 12.804000570627958 7.537149541631987 0 0 0
325 1 11.320530017966256 4.714552202057488 0.9746424895182892 0 0 0
328 1 13.356320443648642 6.536949008160564 8.006300991944304 0 0 0
329 2 12.76492341329322 5.795173637439308 7.760252260039007 0 0 0
330 2 14.052538740542914 6.2549813736705095 8.681796759674675 0 0 0
331 1 13.64903855945879 11.570678749943502 0.8434024785589991 0 0 0
332 2 13.134422417814859 12.185742779449596 1.5083299096511418 0 0 0
333 2 14.384646404218655 11.269369281853315 1.412460505238365 0 0 0
334 1 16.378374408220104 13.290746970627152 7.902797403892934 0 0 0
335 2 16.821474774332113 13.808867530463148 7.181776376306343 0 0 0
336 2 15.719806234768363 13.869086034120572 8.324487496793225 0 0 0
338 2 4.50285120000408 5.766735011346589 4.591990885176413 0 0 0
340 1 7.164426973679909 7.9608230637470925 10.760296580368024 0 0 0
342 2 7.634362162059132 8.127770189089992 9.924374569185469 0 0 0
343 1 7.299190215990991 13.165693366150995 4.373267812674632 0 0 0
346 1 9.364230405779498 15.351824096412106 10.757237120459692 0 0 0
347 2 10.060019510139766 15.361612294781102 10.108246978910092 0 0 0
348 2 9.465471050902405 14.535571826266585 11.31295086893619 0 0 0
349 1 11.920132683343212 6.446870738828374 4.642428676761919 0 0 0
350 2 11.870136400511008 7.110033359893357 5.4175140249192655 0 0 0
351 2 11.095908967945139 6.328855451002771 4.120154268465526 0 0 0
352 1 14.573095475173762 8.102789960671165 11.527829778431398 0 0 0
353 2 14.740008078784893 7.348125459990667 12.0662237954663 0 0 0
354 2 13.652509099961705 7.964157048666884 11.152032567537086 0 0 0
355 1 14.256052858369827 13.218317244046284 4.369151613185277 0 0 0
356 2 14.622029650619693 12.452850498746546 4.790532137937543 0 0 0
357 2 14.862985088616073 13.471611022313649 3.6385690733436222 0 0 0
358 1 16.894537977086326 15.444660587888555 10.853162018025339 0 0 0
359 2 16.78639211653082 16.152263566103738 11.599983420371503 0 0 0
360 2 17.76430183879783 15.482834170861638 10.420330140591242 0 0 0
361 1 6.962774045099097 7.6312686814888915 5.350550090459935 0 0 0
362 2 6.388129166689845 8.24453013698624 4.955983442000567 0 0 0
363 2 7.8571924903445645 8.018732727547606 5.430734631613777 0 0 0
364 1 9.996074475344324 9.618507275747145 11.577929462234065 0 0 0
365 2 9.408608723317066 10.38299678866429 11.34038232816077 0 0 0
605 2 22.666708970000332 2.6764074781303613 8.365317383547294 0 0 0
367 1 9.841400679617275 14.847075261540041 5.26066151019985 0 0 0
369 2 9.526356763314762 14.800747793966456 6.166232289469708 0 0 0
370 1 12.18329166009728 16.45851087034814 12.097526791927047 0 0 0
372 2 12.215957693324833 15.640664978017767 11.463339173518918 0 0 0
373 1 14.710454880209825 7.588690072239754 5.410132937808445 0 0 0
374 2 15.601129983313207 7.912141112901329 5.569858170633814 0 0 0
375 2 14.438060127083272 7.235817641677486 6.281039333471473 0 0 0
376 1 17.184633679027577 9.715058575893352 12.148674558002186 0 0 0
377 2 18.166528321371867 9.97202792308425 12.177427905774323 0 0 0
378 2 17.02973027462232 8.988220458634103 11.52959427820372 0 0 0
381 2 17.45754683581742 13.943599734467632 4.588658663860579 0 0 0
382 1 19.47181071691708 16.532468742154876 12.384191066823597 0 0 0
384 2 19.067509805846587 16.26278686011668 13.249139789106644 0 0 0
310 1 18.707039391559935 15.622070937717261 8.679044296318311 0 0 0
339 2 33.11756419031359 6.432005756834328 3.74477149015189 -1 0 0
463 1 18.365129003493383 8.055230998955066 0.9737828648002884 0 0 0
130 1 8.412748643939569 11.660195757111126 11.021783797690954 0 0 0
219 2 5.966859792400949 1.6720137285031293 0.8627993065113485 0 0 0
83 2 6.164810297351086 10.271279261450195 8.356054184923225 0 0 0
683 2 25.292396410123278 16.10387892423353 8.230250305869394 0 0 0
380 2 16.67255901374189 15.302689406680809 4.90782270534101 0 0 0
28 1 14.302822864558385 10.26704479995132 13.282558621126919 0 0 0
37 1 18.844382808283942 7.945106065741518 6.554504096488233 0 0 0
692 2 30.04149383343266 14.095755953170436 1.3427062254123796 0 0 0
710 2 26.6360354634208 5.117752786361251 0.22335322798667773 0 0 0
122 2 32.22552866205418 3.6298244130409936 5.208751504790214 -1 0 0
121 1 2.702893345861548 3.150921991915563 4.397563682110818 0 0 0
236 2 16.038042315536536 8.701506873451125 0.8805244500860238 0 0 0
91 1 11.217664420948985 8.018984205928485 0.48506350092455397 0 0 0
85 1 8.586400622896392 0.7324454256731984 0.7338766702563134 0 0 0
2234 2 24.06281550376519 8.502596129297528 13.574075046856539 0 0 0
531 2 21.035301824947965 1.831828348341119 5.111056950897605 0 0 0
432 2 9.541380488440266 16.39860293914016 12.204056186464928 1 0 0
286 1 22.25938947883188 14.812473271417897 9.38498789827078 0 0 0
312 2 17.89362359439906 15.929519965631062 8.218853420864782 0 0 0
191 2 21.793831477527565 12.835258481134092 13.587024941368583 0 0 0
318 2 5.727332830670085 6.958028066360316 8.161012488471528 0 0 0
32 2 14.260164863385219 14.381736989708282 5.669387091877485 0 0 0
78 2 33.09994221754348 3.2423249187203558 8.3818697812919 -1 0 0
542 2 29.985989176721528 1.8553841979762893 5.48359824097208 0 0 0
300 2 10.230482822050988 15.923530519628523 8.14559669170835 0 0 0
371 2 12.990462239089252 16.954064554849644 11.94469349246568 0 0 0
698 2 18.244748293647003 4.0001806012710075 0.3815943780421909 0 0 0
383 2 20.40547359340258 16.90570520578479 12.533310018580368 0 0 0
126 2 6.1492016022426865 3.604325682922814 11.650707840995482 0 0 0
681 2 23.604926597903166 14.090043447058354 2.063875312254502 0 0 0
297 2 7.732599820936528 13.814409964561039 1.3921307034319585 0 0 0
34 1 16.697475525455598 17.03651497133856 12.840219896964346 0 0 0
285 2 20.228461017772908 13.327516180984912 3.6634046455637463 0 0 0
230 2 12.33219769580613 0.6536231286284758 1.9153013837416735 0 0 0
225 2 8.491260397722298 8.446274716124474 0.8984061277593046 0 0 0
174 2 11.378575676757118 5.571153249029738 13.574939522450112 0 0 0
345 2 6.474066652894427 12.967205030931087 3.850369377414538 0 0 0
512 2 20.200221723538228 10.522758093443901 5.448092766092354 0 0 0
82 1 6.181180828023492 9.69369440076672 7.5755385232668715 0 0 0
207 2 16.047956848612902 2.1592743079644525 2.3112060610688028 0 0 0
705 2 21.143712075111264 10.65761242475826 0.6496877305996109 0 0 0
281 2 20.236156152029636 7.55518213869271 9.130415263717248 0 0 0
615 2 28.276819150796285 1.3969566487577902 0.8863902461227297 0 0 0
282 2 20.50957502558398 8.259846072907985 10.414917558657635 0 0 0
613 1 28.007815046224145 1.169329957232085 1.7935470666645081 0 0 0
486 2 22.595584510589436 5.315494507762436 13.467807862970862 0 0 0
575 2 36.647966836655144 13.98009264278671 13.256365126403214 0 0 0
1068 2 6.728355513693009 2.4059736250848966 8.67745090665996 0 1 0
657 2 26.91326406002471 13.622683882624248 2.1474038309617924 0 0 0
492 2 24.90701233133851 12.808343368816786 13.25472448888219 0 0 0
337 1 4.231901599955616 6.569680576868276 4.1234153806240625 0 0 0
148 1 9.539730284880891 3.9489392157066923 11.934198428921405 0 0 0
134 2 11.280997001889224 1.705296668214855 4.690415973611007 0 0 0
212 2 18.484539034363607 9.09173761561394 2.2398822002430014 0 0 0
45 2 21.931531287070637 14.568155047122547 5.531138731826334 0 0 0
73 1 1.3540873822850747 0.8432365297558755 0.5056406533817309 0 0 0
33 2 13.606664952312492 15.713918555198369 6.048397393030734 0 0 0
76 1 3.7077176183023886 2.8276205922461433 7.589220517627925 0 0 0
279 2 17.13868324572501 5.48085733650766 2.20327779407096 0 0 0
327 2 10.915842054531687 3.9075071860641364 0.5274496360060503 0 0 0
379 1 17.323040936917792 14.66622430253293 5.312373873170955 0 0 0
986 2 11.073777809041054 14.610619496710639 2.1038754310563186 0 0 0
430 1 39.188260964305506 16.975208874640284 13.010885882071026 0 0 0
261 2 17.45271260984165 11.11042667103397 0.5155457323447963 0 0 0
36 2 16.220443634736544 16.465797788030326 13.459484133057403 0 0 0
31 1 14.14418192552078 15.02290060423618 6.439558030983964 0 0 0
570 2 34.457672414176336 6.749409649310133 13.407820505114753 0 0 0
131 2 7.579142882897425 11.60294843438892 10.502449797630483 0 0 0
77 2 4.450185108420813 2.283595317343968 7.977108260718442 0 0 0
680 2 22.048500455333453 13.725785478274819 1.5729033569718147 0 0 0
1857 2 11.905599858924788 15.740027302302623 13.353728836815103 0 0 0
602 2 19.818175112205452 0.9495593681396856 1.5810901803466495 0 0 0
344 2 7.009004532008088 13.934767823436706 4.934508571849302 0 0 0
42 2 20.903361328937923 10.422331985815454 12.745294034112055 0 0 0
341 2 7.08899029473319 8.832870691131138 11.133973553901253 0 0 0
206 2 16.69641441280671 2.8846594297643535 3.4358201602471174 0 0 0
504 2 33.181102118060174 13.707255733703226 13.397750206427279 0 0 0
669 2 5.285121283363396 12.42446743117257 1.753468622981934 1 0 0
287 2 23.007692460153454 15.127681395023565 9.957134448936635 0 0 0
284 2 20.03024900941 12.550633080159429 2.27270732744685 0 0 0
215 2 21.90346626998118 11.386147067190114 9.915853863813023 0 0 0
423 2 34.609104233730754 8.636610606545107 6.675986692301137 0 0 0
755 2 28.26647605815699 17.310819703437062 12.126695548875148 0 0 0
173 2 12.255751034192762 6.743772466353289 13.297541556171595 0 0 0
385 1 22.513300051037497 5.422209965927643 4.1587615447365724 0 0 0
386 2 21.723982183620738 4.938112114239853 3.837827201799894 0 0 0
387 2 22.789331777359575 4.868286193871308 4.930032238865258 0 0 0
388 1 24.95983048801219 7.184646128349196 10.589876512327487 0 0 0
389 2 25.35623684268338 6.786988781248706 11.385696497224519 0 0 0
390 2 24.296625812355803 6.600893807216185 10.256354699372665 0 0 0
391 1 24.924474500026086 12.553433695832004 3.832186396938563 0 0 0
392 2 24.197808150422926 11.957335757288737 3.593380487859222 0 0 0
393 2 25.702934478222954 12.509328815004624 3.192210894473634 0 0 0
394 1 27.715331392286224 14.248700027176763 11.001671983043016 0 0 0
395 2 27.34474501200043 15.06588799958392 11.24984948410892 0 0 0
396 2 27.031758349012197 13.693478388995052 10.608500077670767 0 0 0
397 1 29.795260356510703 5.332327684854187 3.9958419249856667 0 0 0
398 2 29.191541479497243 4.671439141176798 3.5945420047301977 0 0 0
399 2 30.512931534352862 5.530132727954584 3.2632526156779296 0 0 0
400 1 32.15437320240156 7.062264504566288 10.85085360818111 0 0 0
401 2 32.12552707966605 7.969175751112622 11.26214966710073 0 0 0
402 2 32.51828479648935 6.42030233294206 11.568649837008799 0 0 0
403 1 32.171064008152996 12.33083800444259 3.8758372617009105 0 0 0
404 2 32.638431337671 11.846900822904102 4.578784475674686 0 0 0
405 2 32.86475778874721 12.362879163638787 3.2063109414624917 0 0 0
406 1 34.86900038657366 14.225812097430667 10.545175879838903 0 0 0
407 2 35.333641367138675 13.860683666225118 11.354745819885872 0 0 0
408 2 35.647858140105654 14.431172332257757 9.953668949426143 0 0 0
409 1 26.722311248940944 8.37247321671388 6.246254290522904 0 0 0
410 2 26.212880806393706 7.641658853792491 6.670086690347634 0 0 0
411 2 27.339662145181705 8.900717557872369 6.790475213291034 0 0 0
412 1 29.29887604853804 9.803600928899668 13.224633104588724 0 0 0
413 2 29.626930436917807 9.496375854679016 12.342126177732375 0 0 0
414 2 28.688175062676695 10.4902911565794 12.899580336486219 0 0 0
416 2 28.76985770554177 14.641101883686925 6.513935905045552 0 0 0
146 2 7.7528691392307385 1.7175140554735844 5.768756821714934 0 0 0
420 2 31.587795866147705 16.463099677998443 12.431209006571168 0 0 0
670 1 36.96415070428904 15.115177028655197 9.18266829175706 0 0 0
425 2 36.054322809199626 10.345850997528887 12.650710577184684 0 0 0
433 1 20.360389809372847 4.100131765802186 3.0428135044712366 0 0 0
434 2 19.726116528148744 4.439712307626688 2.399947361434172 0 0 0
435 2 20.685113270217453 3.4565322167448684 2.427926046250615 0 0 0
436 1 23.038954775235354 5.474854122246816 9.54502025994668 0 0 0
437 2 23.275744008790607 4.51611561222442 9.41283698613226 0 0 0
438 2 22.449435681890122 5.681861908245939 8.792127778988018 0 0 0
439 1 23.067988491513415 10.443159799366317 3.0983419814145146 0 0 0
440 2 23.093197332502676 9.484640305180429 2.8296184044568657 0 0 0
441 2 22.335052318484323 10.43723873198191 3.743739710494656 0 0 0
442 1 25.677045833787297 12.683391636680959 9.93241023772685 0 0 0
443 2 25.177937715384772 13.18070208653868 9.1948790554203 0 0 0
444 2 25.852402479790204 11.799296743716857 9.449534575983654 0 0 0
445 1 27.66102860722932 3.7563964755653463 2.9954142402067805 0 0 0
446 2 27.132537094856627 4.1434379962260595 2.250507724175581 0 0 0
447 2 27.77986331226699 2.858479641332969 2.6163972870687746 0 0 0
448 1 30.181967031063735 5.5702244652749 9.539183594202232 0 0 0
449 2 30.54000582308212 4.716588681817268 9.201764294486122 0 0 0
450 2 30.970410788909476 6.099469172247715 9.917508661572008 0 0 0
451 1 30.237110581581998 10.746763295040074 2.684317513136916 0 0 0
452 2 30.842433663986295 11.306922116257882 3.1810034658475512 0 0 0
453 2 29.357774123779343 10.75019567759191 3.15243441669513 0 0 0
454 1 32.6807548286046 12.440021397353224 9.643731559482145 0 0 0
455 2 32.33770784950001 12.839954471681905 8.792355155364302 0 0 0
456 2 33.47551419265691 12.833657122801117 10.02800237437045 0 0 0
462 2 19.198797004576555 3.335074830800436 7.290464006597319 0 0 0
464 2 19.145313566578835 7.508167261918175 1.2012714826466153 0 0 0