LAMMPS data file via write_data, version 3 Mar 2020, timestep = 0

2016 atoms
2 atom types

0.0000000000000000e+00 1.7939386413229702e+01 xlo xhi
-1.5285228921905123e+00 4.6524682869108787e+01 ylo yhi
0.0000000000000000e+00 1.9080092684409998e+01 zlo zhi
4.3026480342850178e-02 -6.6602846614529234e+00 -2.4101646756214734e-02 xy xz yz

Masses

1 16
2 2

Atoms # atomic

579 2 2.7759967391167182e+00 4.1349345451580515e+00 1.6458937358910454e+01 0 0 0
223 1 -1.8422148755944097e+00 6.4317467699482203e+00 1.7758721609420093e+01 -2 0 -2
995 2 7.0156502650648758e+00 8.7491081107955857e+00 6.2752882070980966e+00 3 0 1
654 2 3.3386653473714478e-01 5.7530954053434424e+00 4.4146238750799451e+00 -1 0 0
394 1 9.3229505398979917e+00 5.2615399705251127e+00 3.4508234135194327e+00 -3 0 -3
578 2 2.5450484840151617e+00 5.5913961711696984e+00 1.5729438989399858e+01 0 0 0
929 2 1.5086064269515226e+01 3.5248276336207276e+00 4.7242758306782697e+00 0 0 0
991 1 1.3590701963386925e+01 -5.8342574420341409e-01 8.9008514388361579e+00 1 0 1
705 2 -2.9525964717838602e+00 5.9266960131538813e+00 1.3335119634704878e+01 -2 0 -1
302 2 9.2865419520926764e+00 5.6675753130726978e+00 1.5549053177317200e+00 0 0 0
299 2 1.1211674080006414e+01 3.3075157089022191e+00 1.3737528530021343e+01 -3 0 -2
6 2 2.9222769306405212e+00 1.0008209296566305e+01 4.9577093635551899e+00 1 0 0
150 2 1.0706230510700816e+01 7.0301180209127558e+00 1.3441639431647630e+01 -4 0 -1
406 1 1.6294155318602570e+00 1.4261675531381655e+00 1.1238908168907805e+01 -2 0 -2
672 2 2.3385533416317417e-01 1.7663127829890177e+00 7.0221376915794131e+00 -3 0 -1
596 2 2.9583487838166951e+00 4.1689628924831004e+00 4.4433622754930067e+00 3 0 -2
221 2 -2.7678785949408842e+00 1.0273837256852230e+01 1.8436592807504361e+01 -2 0 -3
535 1 1.1529056777942776e+01 9.4805014077406966e+00 2.9240488593661773e+00 -3 0 2
881 2 1.3395856193447292e+01 4.8600888363338051e+00 6.3650668490045224e+00 -3 0 2
319 1 1.0808578083621331e+01 -4.3054340948166958e-02 1.3626234086506296e+01 -4 0 -3
53 2 1.0745558163167502e+01 3.0469488081014644e+00 1.1456353611462697e+00 2 0 0
721 1 1.5861589772380311e+00 1.0201183022454664e+01 1.8791655188823704e+01 -5 0 -3
609 2 9.1396919883771233e+00 1.5969329141851167e+00 1.5228970945988360e+00 -3 0 0
1583 2 -5.0963718682376795e+00 2.0202290446149807e+00 1.4663491900870090e+01 0 1 1
122 2 8.0741969116007031e+00 7.0504625541119132e+00 1.4874116276812988e+01 -2 0 -1
295 1 1.6741700971195140e+01 7.7805467814531664e+00 1.4940817550925192e+00 1 0 3
407 2 8.5055780847297147e-01 1.4517552299316656e+00 1.1735887706485972e+01 -2 0 -2
707 2 -5.9175403724081121e-01 7.8242331855859355e+00 1.7560464969550054e+01 -1 0 -1
972 2 4.3952381896261441e+00 6.4028816970037008e+00 1.4709797361782178e+00 0 0 1
448 1 5.9801914404022796e+00 8.0601595263737398e+00 9.0673889015560807e+00 -1 0 1
244 1 8.4401389685866555e+00 5.4286952833889845e+00 1.1635857881296930e+01 -4 0 -4
841 1 -1.7504696706275271e+00 -1.2511990658395302e+00 1.6459200944249950e+01 -5 0 -5
336 2 1.0251414229753481e+01 1.0392812644386776e+01 6.6949176744348682e+00 -2 0 -2
765 2 -4.3692426615619100e+00 9.4698471803199045e+00 1.3210698885517774e+01 -3 0 -3
737 2 1.4222327271957248e+01 8.0605369095101427e+00 6.4450408804667747e+00 -1 0 1
301 1 9.4648625987314983e+00 6.0993166497878999e+00 7.3986892214668409e-01 0 0 0
149 2 1.1555813604166794e+01 7.7907317230970712e+00 1.2383571071066966e+01 -4 0 -1
621 2 1.4475054177483577e+00 9.2390269350270007e+00 1.5497937269834006e-02 -3 0 0
463 1 8.0796872641709561e-01 5.6587041240428375e+00 6.1268293868503401e+00 2 0 0
449 2 5.2908474949840585e+00 8.6799613015713923e+00 9.3644592746017210e+00 -1 0 1
524 2 2.4656230604045710e+00 3.7543492372614740e+00 1.3220939491917617e+01 -2 0 -4
585 2 -2.6492883508419656e+00 8.1009575888283614e+00 1.4070617347758839e+01 -4 0 -4
523 1 2.5081542003636965e+00 4.4139136336533200e+00 1.2459808664937885e+01 -2 0 -4
658 1 5.7507717318976823e+00 3.0680024486260473e+00 1.3546145986825456e+01 -1 0 -2
206 2 3.3911028141377528e+00 1.4774673008134052e+00 1.1503533167324724e+01 3 0 0
96 2 1.6184974162071089e+01 5.7062830371098308e+00 3.7268798488037755e+00 -2 0 -1
441 2 1.0274809023812077e+00 5.2935835101556465e+00 1.3017631466591872e+01 -2 0 -1
151 1 7.6504383350612155e+00 3.4887667168204906e-01 4.4184031194822495e+00 3 0 0
781 1 7.9110013527358236e-01 3.3677353218837682e+00 8.5239118749408938e-01 -2 0 -2
880 1 1.3020469453113705e+01 5.3795332849494617e+00 7.1485461286386585e+00 -3 0 2
626 2 1.3605918447350716e+00 2.1318280233840241e+00 1.7325348731839657e+01 0 0 -1
919 1 1.0812299344015177e+01 -8.2206486139865931e-01 9.7674998745101078e+00 0 0 -2
703 1 -2.8958877359898807e+00 4.9453205145974408e+00 1.3398301941977568e+01 -2 0 -1
382 1 1.4053813503944228e+01 5.1662056626061990e+00 1.3848407651505903e+00 -2 0 1
21 2 8.5031572658752630e+00 7.9182754559674855e+00 4.4489007299152750e+00 -3 0 -3
711 2 2.0328416179706830e+00 9.4706081551208925e+00 1.2324274822146705e+01 -3 0 -2
54 2 1.0968428841166192e+01 1.7664099496427719e+00 5.6453010637295475e-01 2 0 0
495 2 2.0289764942718680e+00 8.5164023150342167e+00 6.9218931560921373e+00 -3 0 -2
689 2 -1.7430791933416385e+00 2.2928921054829754e+00 7.1287980164424107e+00 -2 0 0
536 2 1.1561094355959838e+01 9.4753060355978462e+00 3.9417759962561245e+00 -3 0 2
392 2 2.8360503782789834e+00 7.0811294951392707e+00 1.0232246002475723e+01 -1 0 -1
652 1 1.0250413083171472e-01 5.3861383763839843e+00 3.5126176518326275e+00 -1 0 0
52 1 1.0296679745165232e+01 2.4438374058807022e+00 6.3844758207957975e-01 2 0 0
356 2 -2.9003110273076516e+00 5.7952010417920707e+00 1.6058491834299332e+01 -4 0 -3
477 2 5.9429031152281055e+00 4.0006245660313722e+00 1.0079968313897860e+01 -1 0 2
500 2 -8.0855239467463047e-01 2.4794097220017788e+00 1.2363614533526670e+01 1 0 0
367 1 1.0427121034208616e+01 4.2697708393824048e+00 7.3523170479298967e+00 -2 0 0
806 2 1.0342921643784951e+01 4.3345153548865323e+00 9.3110802530186518e+00 -4 0 1
789 2 4.5890388619140765e+00 8.4038192517200550e+00 1.7468640359786387e+00 -2 0 0
810 2 5.8034397698211642e+00 5.0964761194340573e+00 8.2597453939217189e+00 -4 0 -1
930 2 1.3540350026151144e+01 3.2110579121928087e+00 4.5706974150765216e+00 0 0 0
702 2 4.5176828979176156e+00 1.1135884964854785e+00 1.6057403768388681e+01 -3 0 -3
501 2 -9.4060731812146381e-01 9.3256071427683063e-01 1.2599274454674086e+01 1 0 0
625 1 1.9436361037316185e+00 2.8877318671051757e+00 1.7545864836282146e+01 0 0 -1
459 2 1.5972622264947047e+01 -8.6055085497941586e-01 3.6247678324998103e+00 -3 0 -2
101 2 4.8528264919193518e+00 6.0225727200117838e+00 1.1055952671102421e+01 -1 0 -1
384 2 1.4287121338611783e+01 5.7037592806305950e+00 2.1686817265693561e+00 -2 0 1
245 2 9.1713483986047919e+00 5.0655401185116578e+00 1.1033493116137118e+01 -4 0 -4
622 1 -4.2362242190426098e+00 3.2964253225861535e+00 1.7725511549560132e+01 -2 0 -2
624 2 -3.4096366344996749e+00 2.8260567074828229e+00 1.8019691627423160e+01 -2 0 -2
179 2 4.4808031345260320e+00 5.2034760441961199e+00 1.7531952152442081e+01 -3 0 -1
343 1 -5.2282926822747262e+00 -1.4028469653922206e+00 1.5123563396605062e+01 -1 0 1
538 1 2.8028820854841707e+00 -4.8171396472751149e-01 2.1274403801970232e+00 -4 0 -3
368 2 1.1335938126361413e+01 4.6068921353772971e+00 7.2275697697857684e+00 -2 0 0
335 2 8.7862886706727767e+00 1.0243999160207082e+01 7.2002780807061386e+00 -2 0 -2
927 2 -3.6684218894871634e+00 -8.7515879073129688e-01 1.2163906652748155e+01 2 0 2
49 1 7.6813047855470469e+00 1.5778585790154813e+00 1.2602880838107057e+01 -1 0 0
183 2 8.7507862373925729e+00 2.9606604344842911e+00 5.2633760586605458e+00 -1 0 0
464 2 8.1867854405059193e-01 6.6318588457989875e+00 6.4140496800267224e+00 2 0 0
393 2 1.4595290234914797e+00 7.6417547425839665e+00 1.0377956608733060e+01 -1 0 -1
185 2 5.6666014938484803e+00 -7.5727055569515522e-01 4.7652646061262111e-01 -4 0 -6
749 2 4.5928211135257273e+00 7.5774396579029695e+00 1.2806715369057606e+01 -3 0 1
135 2 -1.6671985989933005e+00 9.0605710237117165e-01 9.3176861244057605e+00 1 0 -1
778 1 5.5987465967984971e+00 8.3573491408750247e+00 5.1865662339919059e+00 1 0 0
433 1 9.4549010066008563e+00 1.0099425672511330e+01 1.3512320920995338e+01 -2 0 0
598 1 -7.1281763790040631e-01 -9.6163678779662121e-01 7.0489948816033232e+00 -3 0 1
120 2 5.5378717040204144e+00 2.4096415461983938e+00 3.3376244760570772e+00 -2 0 -2
184 1 4.7028862043199400e+00 -6.1815318359301785e-01 3.3096683210471045e-01 -4 0 -6
640 1 3.5517465465179088e-01 4.8289346453439892e+00 9.4826873637244944e+00 4 0 -1
753 2 -4.9844875953475727e+00 6.7269282985562686e+00 1.5683230606934455e+01 0 0 2
458 2 -7.3973491708277939e-01 -2.4519648522048887e-01 2.7596872438471101e+00 -2 0 -2
119 2 4.5542844662293627e+00 1.6926119937662918e+00 4.3137221504666856e+00 -2 0 -2
525 2 2.6277578372708712e+00 3.9295001686559994e+00 1.1639921558505492e+01 -2 0 -4
434 2 8.5051522288976269e+00 1.0094863930972551e+01 1.3313607238992594e+01 -2 0 0
971 2 2.9931909984640077e+00 6.7859281164074314e+00 9.6428980483193338e-01 0 0 1
559 1 8.5996154720819469e+00 -9.0689567253105097e-01 6.9188347684522524e+00 -2 0 1
212 2 1.0761109702817471e+01 7.7727336567624405e-01 8.0688256539615253e+00 -5 0 -2
701 2 3.9284643841703595e+00 2.5576236665414962e+00 1.5754884349577704e+01 -3 0 -3
5 2 4.0239707970560863e+00 8.8720513699578465e+00 5.3829500339209027e+00 1 0 0
470 2 1.7102669998922689e+01 3.5350320255778795e+00 9.6417483359628109e-01 -7 0 -2
471 2 1.5590584399212899e+01 4.1184451444822630e+00 1.2963587901504412e+00 -6 0 -2
708 2 3.9928840076068361e-01 9.0499352978795198e+00 1.7703329445903790e+01 -1 0 -1
85 1 9.6438873100054217e+00 3.4971569737437225e-01 1.8562142360564572e+01 1 0 -3
46 1 8.7909270610396995e+00 6.3144464951181218e+00 7.3992082314834624e+00 -3 0 0
992 2 1.3341400974446850e+01 2.0730687051719876e-02 9.6299799693390469e+00 1 0 1
291 2 7.8855587185602705e+00 1.0115118697050493e+01 3.5727716154708404e+00 0 0 3
627 2 2.5756753813645812e+00 2.5957752369859408e+00 1.8294181607013339e+01 0 0 -1
111 2 4.3839200932802402e-01 -1.0751173973064199e-01 1.7551351144214959e+01 1 0 -4
869 2 -1.8612561293956920e+00 4.3011354103041519e+00 7.5523986622758761e+00 2 0 0
16 1 -1.3889239569971945e-01 3.9151737696409077e+00 1.5424798867979076e+01 0 0 1
178 1 4.8606474911674988e+00 5.1407363456906801e+00 1.8414311286251841e+01 -3 0 -1
974 2 8.7824963931142968e+00 1.8366627980029282e+00 1.6515129114229708e+01 -4 0 -2
118 1 5.4488287468181031e+00 2.0280524696585203e+00 4.2494186250776300e+00 -2 0 -2
922 1 3.3590953042504621e+00 8.6053681536198816e+00 1.5588743040198397e+01 -3 0 -3
623 2 -4.5954848520681102e+00 2.8010501032772348e+00 1.6982658295094957e+01 -2 0 -2
1668 2 5.6874941814249889e+00 4.0483935161413811e+00 1.3895974339983267e+01 -1 1 -2
644 2 1.1811589325388864e+01 1.5262351222001858e+00 1.0372231149487758e+01 -4 0 -3
714 2 -1.7361484703428789e+00 -3.8563687768323041e-01 1.1167190411045464e+01 0 0 3
83 2 -1.8276350969108175e+00 7.5283750675533749e+00 5.6990978714326586e+00 0 0 -3
239 2 4.8232391961406567e+00 5.4453266323597616e+00 1.5097715179027222e+01 0 0 0
716 2 5.8058490467104802e+00 2.4294547032468685e+00 3.6307738020556918e-01 1 0 2
717 2 6.6247265619630440e+00 3.6770322746758612e+00 5.8963888720973479e-01 1 0 2
240 2 6.0597404938149193e+00 6.2833596205598106e+00 1.4600041343615425e+01 0 0 0
904 1 7.5586588408620612e+00 8.6217999413445767e+00 2.6959390226512379e+00 -3 0 2
17 2 2.8888684275246046e-01 4.1084886877578457e+00 1.6295560229000152e+01 0 0 1
779 2 5.6094801230389084e+00 8.7401121189166666e+00 4.2659217782722436e+00 1 0 0
760 1 7.3773823294936003e+00 -8.5123968467254385e-01 4.1696603332307969e-01 -3 0 2
645 2 1.3328874364543715e+01 1.8880583263621480e+00 1.0620657525670998e+01 -4 0 -3
613 1 -1.8991620687387432e+00 1.8605450384369240e+00 1.8270579407875594e+01 -2 0 -1
246 2 8.2750516105211886e+00 6.3302708943379820e+00 1.1390675870900287e+01 -4 0 -4
238 1 5.4172189508945126e+00 5.6578846379922796e+00 1.4328917822799342e+01 0 0 0
522 2 7.7883753760289238e+00 -1.0670260124413344e-01 9.7140479153448371e+00 -5 0 -2
715 1 6.1978548705216268e+00 2.9630424480444342e+00 1.1250952795642311e+00 1 0 2
115 1 1.2473770164240248e+01 4.9403829242063741e+00 1.1600083651678853e+01 -5 0 -5
426 2 1.3260521328539440e+01 1.9986325240534448e+00 2.5174173527354085e+00 -2 0 1
494 2 1.5144379571205908e+00 7.6490432872254051e+00 8.1428233801668171e+00 -3 0 -2
962 2 7.9110088459850569e-01 -6.5254908935261546e-01 1.3926319472772002e+01 -3 0 -1
761 2 7.7052688173140300e+00 -2.4451316381650523e-01 1.1391229267635141e+00 -3 0 2
933 2 -2.7157134856682248e+00 1.8890005999742256e+00 1.4917097043279513e+01 -2 0 -1
511 1 7.1876654358229306e+00 -7.2017455012323528e-01 1.5945962320547924e+01 1 0 0
868 1 -1.3334963113388796e+00 5.1042649933492488e+00 7.6111867589603479e+00 2 0 0
876 2 -3.1243792275494684e+00 9.7829367621431089e+00 9.7913466609062869e+00 -2 0 1
18 2 -8.4826633932277673e-01 3.3074952298146592e+00 1.5615189267510432e+01 0 0 1
87 2 1.0197419513066350e+01 -6.5493186391538449e-02 1.7924183904260296e+01 1 0 -3
560 2 7.8046381157860480e+00 -1.4596443878543595e+00 7.0102266793441599e+00 -2 0 1
785 2 1.7671099561410408e+01 4.2635002445387737e-01 6.4265331100534906e-01 -4 0 -2
870 2 -1.8779499132535211e+00 5.8942151243463039e+00 7.4667382040784753e+00 2 0 0
211 1 1.1262907609617166e+01 1.5191210534841231e+00 8.3319728642398623e+00 -5 0 -2
387 2 2.3609742312551165e+00 2.2264996790139238e+00 3.5271417134517447e+00 0 0 -2
507 2 1.3886860790781247e+01 7.7557056068482524e+00 3.5517080184594914e+00 -4 0 -2
643 1 1.2556121709095926e+01 1.3783555135685712e+00 1.0887679606960759e+01 -4 0 -3
506 2 1.2809818784522127e+01 8.3687085524320715e+00 2.7867775945138122e+00 -4 0 -2
875 2 -1.7505653886032777e+00 9.9249746896165760e+00 9.2138007547508316e+00 -2 0 1
279 2 7.7553671614310584e+00 8.5527453815367149e+00 1.1604240644589638e+01 -4 0 -1
116 2 1.2936571609511434e+01 5.1582201564743766e+00 1.2415782593173111e+01 -5 0 -5
224 2 -1.0869113293089265e+00 5.8402349892706953e+00 1.7972335388905403e+01 -2 0 -2
845 2 7.3814288622379012e+00 -2.0859700431970141e-01 1.1899576270365431e+01 1 0 1
48 2 8.9805320749810438e+00 6.9579200332764248e+00 8.0853864488523399e+00 -3 0 0
117 2 1.3183361294208790e+01 5.0918893863747829e+00 1.0940007384449633e+01 -5 0 -5
931 1 -1.8323214817939459e+00 1.7485233644751288e+00 1.5309779498865836e+01 -2 0 -1
513 2 7.7921372992069973e+00 -6.5993423261015538e-02 1.5451102952680092e+01 1 0 0
385 1 2.4113582136612730e+00 1.4507434775750836e+00 4.1207071970357658e+00 0 0 -2
269 2 -2.4397972541073116e+00 9.9600640759891608e+00 1.5384681299726951e+01 2 0 -1
961 1 1.4814204980254537e+00 -1.5674388126600003e-01 1.4458176011443594e+01 -3 0 -1
42 2 2.4154620841619558e+00 5.0851368492407438e+00 6.0776970495549296e+00 -2 0 3
726 2 1.2628212015599141e+01 1.0231802942100385e+00 6.5578642040952237e+00 1 0 1
925 1 1.3297268928083909e+01 -9.5930814160054412e-01 1.2175222694245241e+01 1 0 2
769 1 1.2002591419220082e+01 7.8840245825481077e+00 1.0757856766081854e+01 0 0 -3
1002 2 1.0601497536381533e+01 -5.8619411177509939e-01 3.0109983427084464e+00 -1 0 1
4 1 3.0741648833411293e+00 9.1506285938886744e+00 5.3574437837445545e+00 1 0 0
905 2 6.7051502731875345e+00 8.8341637788909164e+00 2.2382911830894781e+00 -3 0 2
41 2 4.0440304740445061e+00 5.2342523483226868e+00 5.8268367417671092e+00 -2 0 3
685 1 2.3898117729327564e+00 -7.6277504080985226e-01 9.4842462985119731e+00 -3 0 1
812 2 1.0292084155429116e+01 3.5786110274235181e+00 1.5974407827027925e+01 -2 0 -1
932 2 -1.2572889441439545e+00 1.6415375294817229e+00 1.4510442873164028e+01 -2 0 -1
297 2 1.5848625461759465e+01 8.0602144368895097e+00 1.2581351344892582e+00 1 0 3
213 2 1.0864140692126563e+01 2.2394781359240916e+00 7.8158903554077881e+00 -5 0 -2
164 2 6.1404047106463837e+00 9.4273829853762177e+00 1.2754704702327778e+01 2 0 1
502 1 4.8620323012888349e+00 -1.1045621309630778e+00 8.8012145756469380e+00 0 0 -1
338 2 3.8365750784628405e+00 4.7606472365196426e+00 2.5135271145919691e+00 -1 0 -1
697 1 9.7975912395733022e+00 8.7191833184236245e+00 1.0651096157281863e+00 2 0 4
969 2 7.4722182618847111e-01 3.1271742677873613e+00 8.8587443664765608e+00 -1 0 1
545 2 1.7715655161609600e+00 1.6601949563082168e+00 1.4290054831225087e+01 2 0 1
386 2 2.4337233654514994e+00 7.0565548299909686e-01 3.4791969659072293e+00 0 0 -2
457 1 -1.0352111729442812e+00 -1.0889299545624929e+00 3.2911209401064596e+00 -2 0 -2
40 1 3.2873060610644549e+00 4.6149314280629676e+00 5.9991213334004421e+00 -2 0 3
786 2 4.8993081465951926e-01 1.4237634799791903e+00 1.5722736913689666e+00 -3 0 -2
274 1 1.4155151936883428e+01 -1.2317157249982233e+00 1.7345842311453979e-01 2 0 0
724 1 1.3604478543510069e+01 8.3942146617922297e-01 6.5606426029492217e+00 1 0 1
784 1 2.2542175844036350e-01 4.6744128262647133e-01 1.4293149181868161e+00 -3 0 -2
967 1 1.0429272555241558e+00 2.2567714828637517e+00 8.6524593364124183e+00 -1 0 1
553 1 8.1039608914159231e+00 6.7931056853425797e+00 1.8456322153489864e+01 -5 0 -2
681 2 5.9489089208051738e+00 3.9107487864052235e+00 1.8243527494233934e+01 -3 0 -3
649 1 7.0148244267075857e+00 3.8037585172478643e+00 5.5449726087900650e+00 -4 0 0
650 2 6.6325483350323147e+00 4.1745141019032808e+00 6.3514416175175139e+00 -4 0 0
51 2 8.2170885525040944e+00 1.8896883470911239e+00 1.1889623743228427e+01 -1 0 0
36 2 -1.1109732418737894e+00 2.2675834173301603e+00 4.2475075196391749e+00 -1 0 0
945 2 3.3303513663390762e+00 1.1689149118964708e+00 7.0260625563391663e+00 0 0 3
673 1 -4.1210375417580831e+00 9.1187391754458726e+00 1.7724791001664268e+01 0 0 -4
176 2 4.4222110031294939e+00 -4.0640505339499633e-01 1.1967284734183682e+01 -5 0 1
397 1 1.3855608630349369e+01 5.8280360873466019e+00 9.7199422675591141e+00 2 0 0
127 1 1.1518429709693873e+01 4.2643675860722263e+00 2.3263874045167499e+00 -2 0 -1
128 2 1.2142189036348661e+01 3.6060323203129085e+00 2.7169565715049844e+00 -2 0 -1
1407 2 1.3633266308466691e+01 5.5769324652078431e+00 8.7693637787961496e+00 2 0 0
34 1 1.6443005794416518e+01 3.0111034716507925e+00 3.7802902103592579e+00 -2 0 0
928 1 1.4177095900497966e+01 3.8042913234002560e+00 4.9800568556032525e+00 0 0 0
777 2 1.2464050608183896e+01 -2.0030803353041260e-01 5.3525686421406182e-01 -2 0 2
152 2 8.1551395743445170e+00 8.1900156380465727e-01 3.7060616456932558e+00 3 0 0
439 1 3.2936737492748058e-01 5.9117944829509907e+00 1.3337015739300936e+01 -2 0 -2
350 2 1.4895312695194979e+01 2.1138675430792953e+00 1.0374521165060011e+00 2 0 4
68 2 7.8999498068951057e+00 9.9042839633469093e+00 1.8063180748260407e+01 -4 0 -3
275 2 1.4729983692987057e+01 -4.3675676528529084e-01 9.3840328446457497e-03 2 0 0
783 2 -5.3190390203617914e+00 3.2493181351720821e+00 1.9062950062209236e+01 -2 0 -3
148 1 1.1081504789655309e+01 7.9143310699556828e+00 1.3241117580630940e+01 -4 0 -1
994 1 7.2663871187567803e+00 9.2949176400400173e+00 7.0578346248092316e+00 3 0 1
725 2 1.3608920396412621e+01 2.6139887118861549e-01 7.3494941124106559e+00 1 0 1
963 2 2.0820118853477192e+00 -9.1101030465904898e-01 1.4768473779418269e+01 -3 0 -1
129 2 1.2138271197595504e+01 4.8684883988638576e+00 1.8702062451375094e+00 -2 0 -1
503 2 4.9192749781094989e+00 -8.3075691145432018e-01 7.8689599931197787e+00 0 0 0
173 2 9.9665913301449844e+00 6.3478672538085910e+00 1.7804557571363503e+01 -1 0 -2
1664 2 4.1982473658858064e+00 8.4278214448876660e+00 1.8767445309188346e+01 -3 1 -1
687 2 2.3857242148037248e+00 -3.5799384313231930e-01 1.0372049150869250e+01 -3 0 0
539 2 1.9202100427181903e+00 -3.1183141195522568e-01 1.7365714523578868e+00 -4 0 -3
462 2 9.0775399756676123e+00 1.4384613061945113e+00 1.0057182711591789e+01 -4 0 -2
651 2 6.4211343200112907e+00 3.0735595971487699e+00 5.3969873733656364e+00 -5 0 0
748 1 4.7148981972197515e+00 8.4350693495841185e+00 1.3284065413650668e+01 -3 0 1
611 2 -2.5740794866623591e+00 2.6487411932068445e+00 1.0548545850682769e+01 0 0 2
620 2 7.1380000916765685e-01 1.0365821682133074e+01 6.7383442586535824e-01 -3 0 0
619 1 8.9327630762633270e-01 9.4308916253687514e+00 7.7832532760041362e-01 -3 0 0
320 2 1.0322058455146042e+01 -6.4059479289248977e-01 1.3009004679769470e+01 -4 0 -3
102 2 3.6756442438977661e+00 5.8999499101899575e+00 1.2005741844966611e+01 -1 0 -1
497 2 3.4665625331188736e+00 3.4571435596489160e+00 7.1301574690566039e+00 0 0 1
498 2 4.3497350332677014e+00 2.6848794371574742e+00 8.1936357988431556e+00 0 0 1
395 2 8.9709633781822991e+00 4.4483451250722421e+00 3.8981280376756708e+00 -3 0 -3
924 2 2.5968974211437086e+00 8.0365920902156986e+00 1.5421393544299777e+01 -3 0 -3
349 1 1.4041189649218756e+01 1.5845668263695485e+00 1.0474815885997948e+00 2 0 4
679 1 6.4264333809519441e+00 3.1571926862773543e+00 1.7855594340053170e+01 -3 0 -3
398 2 -3.2001338763447524e+00 6.2436374735350562e+00 9.7009812927581418e+00 3 0 0
540 2 3.5101138055625549e+00 -1.6359021083495651e-01 1.4855837941836634e+00 -4 0 -3
504 2 3.9634383381992873e+00 -9.8512170128839682e-01 9.1605430299908583e+00 0 0 -1
321 2 1.1117154801764801e+01 7.3785292523539026e-01 1.3088572628202941e+01 -4 0 -3
943 1 3.1341390472107920e+00 3.5047372587261583e-01 6.4995258188254974e+00 0 0 3
978 2 5.4940134431097372e+00 -6.4028737276593373e-01 1.6415347957937069e+01 -3 0 -1
589 1 -1.8780343537890902e+00 7.0397328433684940e+00 1.0262701259232406e+01 -4 0 -1
993 2 1.2799123970330317e+01 -1.1197425732531381e+00 8.9560754858382179e+00 1 0 1
172 1 1.0853299810010011e+01 5.9810371308818286e+00 1.7721062918691910e+01 -1 0 -2
298 1 1.1773974166567246e+01 2.6143993409141082e+00 1.3354935290447417e+01 -3 0 -2
680 2 5.7918864546102879e+00 2.8578008993900479e+00 1.7158981128161820e+01 -3 0 -3
831 2 1.7784524248049798e+00 8.7542599631083320e+00 2.6954464087488081e+00 -3 0 0
938 2 1.4901967441087990e+01 9.6333986736885837e+00 3.1316038222417482e+00 1 0 1
944 2 2.7701814987802766e+00 7.0347915990403198e-01 5.6635011904491952e+00 0 0 3
100 1 4.1235442958870108e+00 6.5689806145091456e+00 1.1454118905345368e+01 -1 0 -1
1667 2 5.4926441369096572e+00 2.5187731354863780e+00 1.4351989692721379e+01 -1 1 -2
352 1 9.8103011212514577e+00 8.1532490466887069e+00 9.1685736595916882e+00 -1 0 0
174 2 1.1190369648769671e+01 6.6535009428254117e+00 1.7073530596380614e+01 -1 0 -2
388 1 1.4390204089381937e+01 -9.0384796910139498e-01 4.3289426793745429e+00 -1 0 0
465 2 5.6419197289241829e-02 5.1824577210251910e+00 6.4542989195395464e+00 2 0 0
84 2 -1.9181365087403008e+00 8.7411360944601011e+00 6.6935794398145880e+00 0 0 -3
460 1 9.5444046162392624e+00 1.7387337385986337e+00 1.0855404604512524e+01 -4 0 -2
607 1 8.3186299986884116e+00 1.2373217219953627e+00 2.0216034716483278e+00 -3 0 0
167 2 1.0365865062432901e+01 8.5757854547309762e+00 5.3302580384154172e+00 -4 0 -4
736 1 1.3230730780632484e+01 8.0093874078409932e+00 6.5070461221460434e+00 -1 0 1
738 2 1.3186407256858979e+01 8.5343071101423114e+00 7.3526104538017041e+00 -1 0 1
595 1 2.6719385072546924e+00 4.0488076574037075e+00 3.4919968749031240e+00 3 0 -2
528 2 4.3337077948914757e+00 -5.1434556017316657e-01 5.4880368062738203e+00 -2 0 -1
109 1 3.0055001098310008e-01 6.5604861137997528e-01 1.7029711056051550e+01 1 0 -4
615 2 -1.2467035263863027e+00 1.6848055089241476e+00 1.7566587906535233e+01 -2 0 -1
591 2 -1.0054876615979089e+00 6.7400835521622060e+00 1.0049479404600465e+01 -4 0 -1
461 2 9.8621946370395932e+00 2.6492654126597728e+00 1.0741409233610641e+01 -4 0 -2
599 2 -7.0110513915264328e-01 -7.3329746126629047e-01 7.9553217230582129e+00 -3 0 1
408 2 1.4660570387704963e+00 1.8309203697243608e+00 1.0386296605998915e+01 -2 0 -2
20 2 9.1742150315290143e+00 6.5083978290465616e+00 4.5994603428191390e+00 -3 0 -3
182 2 1.0072057563997756e+01 3.4161694812436174e+00 5.7457241649093707e+00 -1 0 0
35 2 1.6361720348009442e+01 2.9081279486100930e+00 2.7918114861039078e+00 -2 0 0
427 1 1.3147879549748218e+01 9.2295385727538601e+00 8.7737197463750949e+00 -1 0 -1
874 1 -2.1986006844326269e+00 9.9029603332408147e+00 1.0076249724462008e+01 -2 0 1
475 1 6.0814345617584742e+00 5.0125718662192229e+00 1.0154323130498714e+01 -1 0 2
250 1 4.4060478324896435e+00 1.0073386523486342e+01 9.7799938043103403e+00 -3 0 2
526 1 4.9968515135325839e+00 -8.4443369694222192e-01 4.8413118275224845e+00 -2 0 0
133 1 -9.5265822254939136e-01 2.3357859447804863e-01 9.5022317743890294e+00 1 0 -1
610 1 -3.0649444549603153e+00 2.0280419293540075e+00 9.9733392806835361e+00 0 0 2
675 2 -4.3070750616491278e+00 8.2149479407019506e+00 1.7342628891466973e+01 0 0 -4
82 1 -1.9737637536857469e+00 7.7567458681109560e+00 6.6206361531430549e+00 0 0 -2
300 2 1.2024625343479734e+01 2.7855189459631431e+00 1.2466252988493949e+01 -3 0 -2
671 2 -6.9453221998308212e-01 6.9792886061612824e-01 6.3534180708553887e+00 -3 0 -1
782 2 9.6342688306307434e-01 4.2667439049871545e+00 1.0859147021919382e+00 -2 0 -2
690 2 1.4617879657931802e+01 2.1051749380471159e+00 7.1203591998389850e+00 -3 0 0
561 2 8.6819362662399193e+00 -4.5953532225157923e-01 6.0919039713266825e+00 -2 0 1
728 2 9.0129787128455572e+00 5.5817742059974753e+00 1.3202432189086601e+01 0 0 1
113 2 9.5651729594633039e+00 6.5412698874714126e-01 1.4623127436160294e+01 -2 0 -1
829 1 1.9299034419988217e+00 8.1005529446984763e+00 3.4214566723629103e+00 -3 0 0
549 2 5.8472558999238817e+00 9.2863612221261445e+00 1.7210723224400894e+01 -3 0 -4
216 2 2.6585745019380735e-01 8.4258759076014691e+00 4.0740077738427987e+00 0 0 -2
712 1 -1.8211142525697066e+00 -4.2451179813731210e-01 1.2103533359407130e+01 0 0 3
67 1 8.7298655912468455e+00 9.8873948567839687e+00 1.8500062840059890e+01 -4 0 -3
727 1 9.5724834467562232e+00 5.9537392336783430e+00 1.3946922159076559e+01 0 0 1
114 2 8.3741835692925068e+00 1.3836425107513022e+00 1.4026249151900315e+01 -2 0 -1
425 2 1.2242482615637073e+01 1.3885929629949354e+00 3.7281367764624087e+00 -2 0 1
544 1 1.9559547933419204e+00 2.5742780830125520e+00 1.4563574923618113e+01 2 0 1
709 1 2.7884303273456927e+00 1.0079050675385133e+01 1.2316236281928164e+01 -3 0 -2
512 2 7.8260601362467304e+00 -1.2207648462218177e+00 1.6512769471105152e+01 1 0 0
496 1 3.4678782527060434e+00 2.6741932769870775e+00 7.7913218702100719e+00 0 0 1
655 1 4.7182226908310447e+00 8.2058807985743343e+00 1.7946439277959250e+01 -3 0 -1
337 1 4.6487479584593174e+00 4.9704071351326746e+00 2.0681313887685993e+00 -1 0 -1
435 2 9.7558717462863420e+00 9.1613079919027456e+00 1.3479878163115814e+01 -2 0 0
428 2 1.2668880216382114e+01 8.9112746506082416e+00 9.6059708016171044e+00 -1 0 -1
844 1 7.4300497459368779e+00 -9.4054111609641289e-01 1.1261097259127380e+01 1 0 1
583 1 -3.0964292491542098e+00 7.7822258534201882e+00 1.3248235680846348e+01 -4 0 -4
584 2 -2.4577410035191214e+00 7.9785568268343159e+00 1.2539690885644228e+01 -4 0 -4
641 2 -2.8199660947032124e-01 4.9303608608932397e+00 8.7192148564332239e+00 4 0 -1
110 2 6.1692443803253116e-01 3.6019670104582335e-01 1.6165311506374749e+01 1 0 -4
168 2 1.1760432479216862e+01 8.6743134905149653e+00 5.8728597984173581e+00 -4 0 -3
47 2 8.7085456182703709e+00 6.8795581009425746e+00 6.6109379874537124e+00 -3 0 0
207 2 4.5632643908487207e+00 2.0995903417187289e+00 1.2383449390075333e+01 3 0 0
808 1 5.9634707315310802e+00 5.5003995458969159e+00 7.4127843588259239e+00 -4 0 -1
636 2 6.4253258484383613e-01 9.3949414227529502e+00 8.9389984587855249e+00 1 0 -2
577 1 3.1940695708393214e+00 4.9092862491067333e+00 1.6091219162531324e+01 0 0 0
19 1 8.9046242922914995e+00 7.3015368706345569e+00 5.0632989320475543e+00 -3 0 -3
1000 1 1.0508511226757669e+01 -1.2663935188587214e+00 2.3068173857647896e+00 -1 0 1
294 2 -8.8306512273183335e-01 4.1985668515087777e+00 1.0867131734515796e+01 1 0 -3
390 2 1.3986774359177780e+01 -1.8790745885955706e-01 4.7861022832383293e+00 -1 0 0
278 2 7.1235123392270250e+00 7.9948909866172624e+00 1.0276758941698327e+01 -4 0 -1
521 2 8.2776256585548964e+00 5.2374592527271391e-02 8.2298857281260709e+00 -5 0 -2
813 2 1.1342827575738447e+01 4.7185805243156596e+00 1.6231546667510969e+01 -2 0 -1
912 2 1.1104878326219023e+01 -1.5861939491995436e-02 5.0329662546326022e+00 -2 0 1
505 1 1.3742290783244524e+01 8.0528684181156205e+00 2.6405365008051391e+00 -4 0 -2
369 2 9.8225916272177649e+00 5.0510332735840660e+00 7.2954442271127089e+00 -2 0 0
771 2 1.1162320878602779e+01 7.7058367057079238e+00 1.0376991543219427e+01 0 0 -3
467 2 -1.7440685585551696e+00 1.0375431160261995e+01 1.1501482273763143e+01 -1 0 2
809 2 6.8877971804399802e+00 5.8332551090644627e+00 7.4727523960266637e+00 -4 0 -1
866 2 1.5190836096481268e+00 5.5787818704029322e+00 1.8821118797712312e+01 -3 0 -1
94 1 1.5366404225244198e+01 6.1443703581710363e+00 3.9909911526572492e+00 -2 0 -1
225 2 -2.3495190158923656e+00 6.6211276153172118e+00 1.8521536441913508e+01 -2 0 -2
770 2 1.2497125281091641e+01 7.0847212529143206e+00 1.0522045991321455e+01 0 0 -3
123 2 7.0807122705041250e+00 8.1043821231231998e+00 1.5680344282774684e+01 -2 0 -1
440 2 -3.6822121248070872e-01 5.2607264648762513e+00 1.3537051144709261e+01 -2 0 -2
383 2 1.3998103100149864e+01 5.9251638096251895e+00 7.3658727728655515e-01 -2 0 1
175 1 4.8686980377876523e+00 -1.2783673159028897e+00 1.1949038687341162e+01 -5 0 1
499 1 -3.8523889492449914e-01 1.7457373037222106e+00 1.2863750025028713e+01 1 0 1
910 1 1.1042810448355747e+01 6.4426429037747157e-01 4.2610867521131350e+00 -2 0 1
546 2 1.1042315887389620e+00 2.9617358623658783e+00 1.4755901599894385e+01 2 0 1
852 2 -2.2369005144400944e-01 9.0955418757028212e+00 1.2219408625440112e+01 1 0 1
729 2 9.7105113235749769e+00 5.2559176014470204e+00 1.4580564406724713e+01 0 0 1
612 2 -2.9992422938632357e+00 2.4099978382536329e+00 9.0566991095581955e+00 0 0 1
252 2 3.6924997241092266e+00 1.0142075302669886e+01 1.0470005052124289e+01 -3 0 1
121 1 7.2763691711333172e+00 7.1749120104029096e+00 1.5444237174658438e+01 -2 0 -1
911 2 1.0310404292268029e+01 1.2981785387816545e+00 4.3934579567727070e+00 -2 0 1
424 1 1.2864107265571965e+01 2.1666699534629381e+00 3.4285703795084621e+00 -2 0 1
811 1 1.0941152456923138e+01 4.0992362608978814e+00 1.5584123151617147e+01 -2 0 -1