LAMMPS data file via write_data, version 3 Mar 2020, timestep = 1000000

1008 atoms
2 atom types

2.4000222556282758e-01 1.8159552774434829e+01 xlo xhi
3.1414282351152067e-02 2.2538974717642844e+01 ylo yhi
2.2789003769116079e-01 1.9277825962306363e+01 zlo zhi
-4.5182213202687622e-02 -6.6198899124478814e+00 -8.5555234130876831e-02 xy xz yz

Masses

1 16
2 2

Atoms # atomic

1 1 6.8801465510485214e+00 8.9735974302786503e-01 4.6370063284265726e+00 0 0 0
668 2 1.2875681417843410e+01 1.9089102630518298e+00 9.3821950014786513e+00 0 0 0
3 2 6.9421777683381674e+00 1.3302645913423508e+00 3.7661158292463823e+00 0 0 0
4 1 3.9289142155210675e+00 1.1373580161869561e+00 5.1306222850061758e+00 0 0 0
5 2 4.7824924836073945e+00 6.6340723059530105e-01 5.1280133821244203e+00 0 0 0
6 2 4.0376204828328444e+00 1.7029086718810711e+00 5.9621165918336363e+00 0 0 0
7 1 -5.8683788995229680e-01 6.3565145030258128e+00 4.8166457101598850e+00 0 0 0
8 2 -5.4991766996280167e-01 6.0850891366146955e+00 5.7214895338492386e+00 0 0 0
9 2 -1.0349023946157005e+00 7.2062371071138003e+00 4.8055306713727033e+00 0 0 0
10 1 2.1186842800762045e+00 6.5636141060425599e+00 4.5809685424351922e+00 0 0 0
11 2 1.1582491466312181e+00 6.7242494086977214e+00 4.7979524684686830e+00 0 0 0
12 2 2.6466924234518587e+00 7.3330220438783753e+00 4.9291770846536060e+00 0 0 0
237 2 1.4896539685704635e+01 7.3354760357882327e+00 8.3283842483475610e+00 0 0 0
14 2 4.5977668870480137e+00 4.6624063973907646e+00 8.9504168360689214e+00 0 0 0
22 1 5.7472230907067923e-01 2.8598844818978773e+00 9.5213536253323774e+00 0 0 0
248 2 7.3052716128751598e+00 8.5574487671984958e+00 3.8929973218551323e-01 0 0 0
18 2 5.4374020693623244e+00 5.3310888346775505e+00 1.0869531844673981e+00 0 0 0
19 1 1.1524538142646286e+00 2.4451482313413591e+00 4.1499116152187454e-01 0 0 0
399 2 8.1668397581660521e+00 1.2230779216909141e-01 1.2377305272244870e+00 0 0 0
21 2 9.6054816144978794e-01 2.2029896928410562e+00 1.3143114846283082e+00 0 0 0
117 2 9.8563647041798816e+00 3.3296875780620949e-01 2.5660793651321434e+00 0 0 0
780 2 1.3312447595031490e+01 9.6749855232489068e+00 6.8434517474839385e-01 0 0 0
254 2 1.6013830009640877e+01 9.2909700741928916e+00 5.5373502159391066e+00 0 0 0
25 1 4.5188484031749656e+00 6.0821161070049641e+00 7.2734543070903559e+00 0 0 0
26 2 5.2918966132307661e+00 6.7483285917270628e+00 7.3800491704175206e+00 0 0 0
27 2 3.6414476139297243e+00 6.3644475846798727e+00 7.5724813951333658e+00 0 0 0
28 1 5.9173395109874036e+00 6.5508568283627264e+00 2.7257905648784861e+00 0 0 0
29 2 5.7817967356741047e+00 5.9153260151200442e+00 3.4567646409342188e+00 0 0 0
30 2 5.0830405840310018e+00 7.0532605232746013e+00 2.6412995461005648e+00 0 0 0
31 1 1.4535540288296604e+00 9.8675792968257958e-01 2.6535008760539855e+00 0 0 0
32 2 2.3612736007764621e+00 7.9713514736457802e-01 2.4818136684785990e+00 0 0 0
33 2 1.3777211336973867e+00 1.4957506061514543e+00 3.4886628056582838e+00 0 0 0
34 1 3.2652306309477641e-01 1.1788569613045787e+00 7.2106559649705559e+00 0 0 0
90 2 1.3730257960829414e+01 8.6152718696517316e-01 5.4164062177652639e+00 0 0 0
36 2 4.4982167689352259e-01 1.6988465534365023e+00 8.0184507410862071e+00 0 0 0
37 1 6.5094363016553451e+00 2.6829523306171179e+00 2.1635927542899163e+00 0 0 0
38 2 5.6860957936506953e+00 2.7700163807354787e+00 2.7162795035732916e+00 0 0 0
39 2 7.0393582801680061e+00 3.2741625281388127e+00 2.6951258003851879e+00 0 0 0
40 1 4.3467534919342468e+00 2.7396485699677386e+00 7.0350702031762955e+00 0 0 0
41 2 5.3050021649591494e+00 2.9553386830382857e+00 6.8427738224913570e+00 0 0 0
42 2 3.7523686897492761e+00 3.4966853678842784e+00 6.8644757714231659e+00 0 0 0
43 1 -2.4888695209528633e-01 4.7959336787976836e+00 7.0181669742813790e+00 0 0 0
44 2 -8.6380221900706200e-01 4.1172174712949712e+00 6.7243929900789841e+00 0 0 0
45 2 -4.7321931954049146e-01 4.9114478364277430e+00 8.0010731287140224e+00 0 0 0
46 1 2.0737947275279387e+00 4.7769432545200061e+00 2.4142753825360335e+00 0 0 0
47 2 1.1477824468144455e+00 4.5634075355508692e+00 2.5161667548422963e+00 0 0 0
48 2 2.1448044588490935e+00 5.3852728853524114e+00 3.1402658918396926e+00 0 0 0
49 1 6.7635442140227369e+00 3.3598215218583634e+00 6.2451258492091997e+00 0 0 0
50 2 6.3733224683541598e+00 4.1164265883143702e+00 5.6946239203886933e+00 0 0 0
51 2 6.9003194054848604e+00 2.6370157119628725e+00 5.6382123719961843e+00 0 0 0
52 1 4.2051863772578084e+00 2.9971121187701737e+00 3.5003558908120160e+00 0 0 0
53 2 3.3835515484759520e+00 3.3454402403281480e+00 3.0609469886857053e+00 0 0 0
54 2 3.9644971191361424e+00 2.1910988329983172e+00 4.0557375651179974e+00 0 0 0
55 1 -4.8903557833314182e-01 4.1362655547858749e+00 3.2609250403392558e+00 0 0 0
56 2 -5.9708477345198574e-01 4.9502476218369615e+00 3.8467293426282705e+00 0 0 0
57 2 -1.2483587623727010e-01 3.4298239624496749e+00 3.8531007588817485e+00 0 0 0
58 1 2.2580929873718953e+00 4.4823419850559816e+00 6.1363126142616071e+00 0 0 0
59 2 2.2575203297923219e+00 5.3402241578447347e+00 5.6512679397625973e+00 0 0 0
60 2 1.3698715572889228e+00 4.4675030220784322e+00 6.5953697633105604e+00 0 0 0
61 1 8.0228595323316014e+00 7.2927769823169086e+00 1.3902071128822695e+00 0 0 0
62 2 7.2579969919055296e+00 7.2041286046431505e+00 2.0129040344088258e+00 0 0 0
63 2 8.0902769843300781e+00 6.3234399254836289e+00 9.7030541332304787e-01 0 0 0
64 1 2.2727495885079789e+00 6.9912829897798137e+00 8.5113004422263874e+00 0 0 0
65 2 1.4723440616238910e+00 7.3157447340482644e+00 8.1108199204176241e+00 0 0 0
66 2 2.6615244483623202e+00 7.7699946367531716e+00 8.9821375214837325e+00 0 0 0
217 1 6.9967055614211144e+00 1.0651048140129744e+01 6.3427628376095875e+00 0 0 0
68 2 -2.2999003678566168e+00 1.4252727498402131e+00 8.7713038378421579e+00 0 0 0
586 1 -7.8995405364099636e-01 5.6603364283101385e+00 9.7305037308908293e+00 0 0 0
72 2 4.2548057682123597e+00 1.2406325091174919e+00 8.6190919163017565e-01 0 0 0
73 1 5.3065401979611622e+00 5.1252595064657314e+00 4.9052027128460827e+00 0 0 0
74 2 4.7671011609499985e+00 5.4647471306339428e+00 5.6560537062846885e+00 0 0 0
75 2 4.6736393431788805e+00 4.5499976889302891e+00 4.4898625350676511e+00 0 0 0
76 1 8.9011479524599890e-01 2.5154409617446434e+00 4.7608261368090146e+00 0 0 0
77 2 5.8900277015186875e-01 2.0517834967248367e+00 5.5827239348429059e+00 0 0 0
78 2 1.5579381534377437e+00 3.2174426806729266e+00 4.9868239786434581e+00 0 0 0
80 2 6.8067365992666087e+00 1.7171127307305383e+00 7.7133111327635839e-01 0 0 0
86 2 1.6228648204166930e+01 3.2840446896989561e-02 4.9434523606536889e+00 0 0 0
69 2 1.4986925862790811e+01 8.4142679929928937e-02 7.9492367277425444e+00 0 0 0
85 1 1.5662327165236713e+01 8.6901535542012398e-01 4.9988049901220517e+00 0 0 0
87 2 1.5471680775697388e+01 1.1911932715513394e+00 4.0626195071403002e+00 0 0 0
88 1 1.2850716211233744e+01 1.2698010645642621e+00 5.6011926131708760e+00 0 0 0
89 2 1.2773604586720980e+01 1.9192084799116187e+00 4.9123031669333024e+00 0 0 0
486 2 1.1654354844909369e+01 2.7283899284252183e-01 8.8414807049215653e+00 0 0 0
91 1 8.3072168190980360e+00 6.4475640903875595e+00 5.0009840244516290e+00 0 0 0
92 2 8.2496510661753781e+00 5.7521275345855329e+00 4.3067184722800222e+00 0 0 0
93 2 9.1485198851167286e+00 6.9026345916370628e+00 5.0010122010009468e+00 0 0 0
94 1 1.1150279553994839e+01 6.8308506808727385e+00 4.9150293723033016e+00 0 0 0
95 2 1.1727318220564085e+01 7.6102477168157483e+00 5.0304988346425326e+00 0 0 0
96 2 1.1148744993257109e+01 6.1702755318494438e+00 5.6203491601967439e+00 0 0 0
83 2 2.1924788017832126e+00 5.6497942244210240e+00 1.0309370897000252e+00 0 0 0
304 1 1.3142835909682491e+01 1.0565375785150255e+01 3.3231275302871870e+00 0 0 0
151 1 6.9074563668489253e+00 8.2372781459459599e-01 8.1291065118460608e+00 0 0 0
101 2 1.4350605365147919e+01 5.1528829490861883e+00 1.5268305688994799e+00 0 0 0
836 2 1.2572888874756559e+01 9.5960562810169119e+00 9.1993177747035588e+00 0 0 0
584 2 3.2611442743671564e+00 5.2272974915068682e-01 9.2693704217606125e+00 0 0 0
606 2 1.0630457495179746e+01 3.9550699491100767e+00 9.6804868534531856e+00 0 0 0
274 1 9.5806940978504631e+00 1.0028905180590076e+01 9.6767579173487519e+00 0 0 0
109 1 1.3615300719706932e+01 6.4950106369232348e+00 7.4056723308603205e+00 0 0 0
110 2 1.3727803105734287e+01 5.9430532544861947e+00 8.1956117478887176e+00 0 0 0
111 2 1.2774134670527582e+01 6.9875347495020463e+00 7.5353023031394946e+00 0 0 0
112 1 1.4723544920596543e+01 6.1809101201575771e+00 2.9392639542722732e+00 0 0 0
113 2 1.4196443072005072e+01 6.9386036969287463e+00 2.6611072804792162e+00 0 0 0
114 2 1.5623650071882389e+01 6.4137901911768109e+00 2.7080693432309513e+00 0 0 0
115 1 1.0462063832065210e+01 1.1001455534542495e+00 2.6345183970980290e+00 0 0 0
116 2 1.0283116728585147e+01 1.6857728553159790e+00 1.8598758868058287e+00 0 0 0
301 1 1.5589639939073120e+01 1.1066126798910059e+01 6.5211060904201963e+00 0 0 0
118 1 9.3056381303234215e+00 1.4033300270214442e+00 7.1241658366907723e+00 0 0 0
119 2 9.4551899310622023e+00 2.0523207416539617e+00 7.7919507737583888e+00 0 0 0
120 2 9.6270391161008728e+00 1.7711449909957504e+00 6.2901360512676092e+00 0 0 0
121 1 1.5134478328195204e+01 2.7307768777202828e+00 2.7672618087204235e+00 0 0 0
122 2 1.5872049499467042e+01 3.3342665394268307e+00 2.9843958614307158e+00 0 0 0
123 2 1.5352501764198424e+01 2.4028948649005848e+00 1.8331512995552501e+00 0 0 0
124 1 1.3173187710928849e+01 2.8294511674205074e+00 7.7640687182741042e+00 0 0 0
125 2 1.4045039148937381e+01 3.0407464170087812e+00 7.4005312075933505e+00 0 0 0
126 2 1.3053336378588460e+01 2.0635281471223021e+00 7.1352377042669790e+00 0 0 0
127 1 8.8971504769941010e+00 4.8421549176226284e+00 7.3493515298762215e+00 0 0 0
128 2 8.2433982414271991e+00 4.1283755177737085e+00 7.0262090975457649e+00 0 0 0
129 2 8.7235496033257078e+00 5.5465093798519964e+00 6.6871135624988796e+00 0 0 0
130 1 1.1011641337841393e+01 5.1066595009004345e+00 2.6532782955553551e+00 0 0 0
131 2 1.1578492788716011e+01 4.4294324162808483e+00 2.9919307598023703e+00 0 0 0
132 2 1.1065513457655991e+01 5.7060127429639875e+00 3.4234041384714402e+00 0 0 0
134 2 1.5114554725301454e+01 3.6111410615494566e+00 5.7608545327130640e+00 0 0 0
136 1 1.2817716540284582e+01 3.3462469927184060e+00 3.6942327746952457e+00 0 0 0
137 2 1.3169774351408568e+01 3.9936906618810477e+00 4.3341089486117390e+00 0 0 0
138 2 1.3644841366241202e+01 3.1653426221516887e+00 3.1433776065180608e+00 0 0 0
139 1 8.4758116492267526e+00 4.3693819158038227e+00 3.3750738883829201e+00 0 0 0
140 2 9.0857497795760924e+00 4.6106893147558674e+00 2.6561726642438583e+00 0 0 0
141 2 9.0415688070431273e+00 3.9095046627157672e+00 3.9917207354487885e+00 0 0 0
142 1 1.1302544164632121e+01 4.4538248036772297e+00 6.3462063916967830e+00 0 0 0
143 2 1.2064872586222366e+01 4.1821760977990259e+00 6.9172283633203762e+00 0 0 0
144 2 1.0415323198651913e+01 4.4549111890925621e+00 6.8354157915157465e+00 0 0 0
147 2 1.6669981918586068e+01 7.3479225917283264e+00 1.3011451113088661e+00 0 0 0
148 1 1.1165620151772595e+01 7.0466997593074625e+00 8.1654802489237213e+00 0 0 0
149 2 1.1058491782771801e+01 6.1747068501687776e+00 8.6743721354939307e+00 0 0 0
150 2 1.1562517856911843e+01 7.6439077401746545e+00 8.8697928943692368e+00 0 0 0
100 1 1.4346776341573959e+01 4.8795230151783349e+00 5.5059012886185865e-01 0 0 0
218 2 7.6323913919370483e+00 1.1066247315163936e+01 6.8632088780065788e+00 0 0 0
153 2 6.6270362170334369e+00 1.5194522334832699e+00 8.7123456376605635e+00 0 0 0
220 1 3.9716470520125089e+00 1.0961990134860619e+01 3.5036982983379006e+00 0 0 0
155 2 1.3104427910614923e+01 1.2088382801698587e+00 1.2310414662608029e+00 0 0 0
219 2 6.2474919916365437e+00 1.0424510100646112e+01 6.9035137142962508e+00 0 0 0
157 1 1.4368731281557478e+01 5.0934858781659216e+00 5.3993793407889070e+00 0 0 0
158 2 1.4511215998306925e+01 5.7404613070299417e+00 4.7084360022738414e+00 0 0 0
159 2 1.3844107743150888e+01 5.6255921930197488e+00 6.0776139174735686e+00 0 0 0
160 1 9.9708672255568640e+00 2.6548892031802223e+00 4.9029276193555766e+00 0 0 0
161 2 1.0724479566952148e+01 3.2179360567801027e+00 5.1738753421107937e+00 0 0 0
162 2 1.0361480913241524e+01 2.0133993828578305e+00 4.2740966007234054e+00 0 0 0
583 1 3.7589735071681813e+00 1.2615417820866845e+00 9.6105823274130895e+00 0 0 0
290 2 1.6131023540833105e+01 1.0591329052278684e+01 2.8040087600624441e+00 0 0 0
167 2 1.1218069573605238e+01 5.8684978804924208e+00 1.1633711762552226e+00 0 0 0
169 1 6.7752162668171909e+00 8.6794117604377767e+00 4.4490610373342410e+00 0 0 0
170 2 7.2704051705479049e+00 7.8666318303867202e+00 4.6383564795782330e+00 0 0 0
171 2 6.9686301191159874e+00 9.2251727695853099e+00 5.2337805287042478e+00 0 0 0
172 1 3.9829092339914069e+00 8.8802387451497111e+00 5.0280376501840323e+00 0 0 0
173 2 3.8878383322988799e+00 9.7406500542574328e+00 4.4643201429175994e+00 0 0 0
174 2 4.8656448259822254e+00 8.6818291418843696e+00 4.6717417671823815e+00 0 0 0
146 2 1.7388741250222445e+01 5.8949497718522945e+00 1.5002422253622618e+00 0 0 0
166 1 1.1395217289204803e+01 6.4847668351360150e+00 3.7844553072789616e-01 0 0 1
222 2 3.1435382123980418e+00 1.1224678247697451e+01 3.1492470654378502e+00 0 0 0
192 2 5.7178744801073478e-01 9.4715241524731475e+00 8.8434647921158778e+00 0 0 0
199 1 1.3459393507077348e+00 8.6446689263622165e+00 2.8161274623485264e+00 0 0 0
200 2 1.1457111781941802e+00 9.2134671959878283e+00 2.0704998957272505e+00 0 0 0
201 2 7.8023477435464750e-01 7.8031696384908873e+00 2.7833022377846022e+00 0 0 0
202 1 1.1703446656993188e-01 8.3741242060437742e+00 7.4392092276956552e+00 0 0 0
203 2 -8.1199852902459724e-01 8.1371691901543048e+00 7.6064780052999454e+00 0 0 0
204 2 2.1715760517683469e-01 8.9812561792390433e+00 6.6582643724734538e+00 0 0 0
205 1 6.4217764479313377e+00 1.0349829066449127e+01 2.3743191544649109e+00 0 0 0
206 2 6.5642780675291590e+00 9.5902744801706934e+00 2.9926552971427838e+00 0 0 0
207 2 6.3376692133198631e+00 9.9102111161578250e+00 1.5085172432008647e+00 0 0 0
208 1 4.4675694156123171e+00 1.0038482628446060e+01 7.5499487937631500e+00 0 0 0
106 1 9.5269096128618393e+00 2.6683566572087609e+00 9.5627676415885929e+00 0 0 0
210 2 4.3308651217153606e+00 9.6059536795282146e+00 6.7067821267967016e+00 0 0 0
209 2 3.7596109881941526e+00 1.0737161453609092e+01 7.4295129446456247e+00 0 0 0
152 2 7.7911305758451821e+00 9.9851755013255628e-01 7.7569796266386399e+00 0 0 0
221 2 4.6163928863031298e+00 1.0840270068706570e+01 2.8110042393517043e+00 0 0 0
775 1 6.5103922212524878e+00 1.0205346054912972e+01 9.7438317760513833e+00 0 0 0
135 2 1.5701486317127182e+01 2.0926428189869206e+00 5.8448731956427755e+00 0 0 0
235 1 -2.2357010568914073e+00 7.7311891408213089e+00 8.6931472554703753e+00 0 0 0
236 2 -2.5566862953500253e+00 8.5981989792101370e+00 9.1478522143279815e+00 0 0 0
238 1 3.8293956938531979e+00 8.0583218791465114e+00 1.6345494958397584e+00 0 0 0
239 2 3.0786403950456624e+00 8.2502043669845460e+00 2.2192254353711913e+00 0 0 0
240 2 3.8349559731417084e+00 8.8128779859844730e+00 1.0004478856615728e+00 0 0 0
244 1 7.0387295524614157e-01 9.8383490053071814e+00 5.2956515847613810e+00 0 0 0
245 2 1.1784706721093556e+00 9.3810563745218225e+00 4.5723534390325122e+00 0 0 0
190 1 7.5838087989351033e-01 9.9449959032874613e+00 9.7055395336064585e+00 0 0 0
156 2 1.2137183058564567e+01 5.2336521849257367e-01 2.1513242742659804e+00 0 0 0
585 2 3.8986736327789764e+00 1.8042491676189116e+00 8.7895643394664784e+00 0 0 0
253 1 1.5625744540115344e+01 8.5931970763280940e+00 4.9715592420716073e+00 0 0 0
255 2 1.5650476198592246e+01 8.9375596605419396e+00 4.0398821858040348e+00 0 0 0
256 1 1.2777907226825718e+01 8.8605382375748594e+00 5.2750265599392705e+00 0 0 0
257 2 1.3644586589499275e+01 8.5599948301334727e+00 4.9976215912385760e+00 0 0 0
258 2 1.2578465110465260e+01 9.4725127954875230e+00 4.5509875417301719e+00 0 0 0
305 2 1.2683126098371618e+01 1.1180615729978765e+01 2.6947195384435241e+00 0 0 0
272 2 1.0121773362675292e+01 9.7355540927057813e+00 1.0394022905764160e+00 0 0 0
587 2 -1.5550552092500372e+00 6.2511999719541036e+00 9.5881546494196694e+00 0 0 0
276 2 9.5954140446692922e+00 9.6089932576061141e+00 8.7688909916060584e+00 0 0 0
283 1 1.0346101623081740e+01 8.5712380779071609e+00 2.4459518049373625e+00 0 0 0
284 2 1.0390279829068310e+01 9.2161515033770325e+00 3.1617920936849200e+00 0 0 0
285 2 9.5685503278117636e+00 8.0412468374715544e+00 2.5269039316694704e+00 0 0 0
286 1 9.1020624522601423e+00 8.6861328148049228e+00 7.2245084001324908e+00 0 0 0
287 2 9.6359551494976898e+00 7.9221781956633075e+00 7.6447241484237969e+00 0 0 0
288 2 8.1134341675663748e+00 8.3830812351320674e+00 7.4483039246327172e+00 0 0 0
289 1 1.5412939751235255e+01 1.0010201019952481e+01 2.4619476603668708e+00 0 0 0
311 2 1.0943795571709702e+01 1.1184245407691089e+01 5.8748576652411062e+00 0 0 0
291 2 1.5615943639411199e+01 9.6420449727545776e+00 1.5294153341013943e+00 0 0 0
292 1 1.3183655587246799e+01 1.0273831389612146e+01 7.6552767368600314e+00 0 0 0
670 1 7.7976648627254690e+00 5.8984251019012062e+00 9.6431931374293818e+00 0 0 0
294 2 1.2908526083942766e+01 9.6854350195871337e+00 6.8987539761037482e+00 0 0 0
102 2 1.3527164366223428e+01 4.3426357684592443e+00 4.0778245822080350e-01 0 0 0
84 2 3.1170310075895582e+00 6.7609229512248001e+00 3.6844252512532016e-01 0 0 0
306 2 1.4042845264879229e+01 1.0301122064480932e+01 3.0166006983130882e+00 0 0 0
2 2 7.4628394320769473e+00 9.6362944098245654e-02 4.6469753303458754e+00 0 0 0
319 1 6.7888163478728139e+00 7.8033374164889082e+00 8.1594039221758798e+00 0 0 0
320 2 6.5633225747449710e+00 8.6254793036013737e+00 8.6030666168208807e+00 0 0 0
321 2 7.0280313726079022e+00 7.1169572451457777e+00 8.8390315851609529e+00 0 0 0
322 1 1.3082801190719312e+01 8.0688561422899046e+00 1.6394981016323908e+00 0 0 0
323 2 1.2318632599070424e+01 8.5061430556477475e+00 2.0480419508506236e+00 0 0 0
324 2 1.2654859788987284e+01 7.5232980859026322e+00 9.4864846567793948e-01 0 0 0
328 1 9.9623171216989359e+00 9.7788134610848836e+00 4.9561630081827532e+00 0 0 0
329 2 9.4979071279747007e+00 9.2436599335392415e+00 5.7154301590036685e+00 0 0 0
330 2 9.2519331410421390e+00 1.0309582510336254e+01 4.5055064622741083e+00 0 0 0
145 1 1.7004156156478246e+01 6.6928489408322527e+00 1.9213349317307882e+00 0 0 0
777 2 5.8684901351444640e+00 1.0927577428202365e+01 9.6408027965756826e+00 0 0 0
671 2 8.2518341722875554e+00 5.4432108158261743e+00 8.8471228345913122e+00 0 0 0
133 1 1.5695806888280952e+01 3.0131519509698390e+00 6.3156452798158904e+00 0 0 0
753 2 4.1118090976187416e+00 9.3225836833380953e+00 9.1514795276191059e+00 0 0 0
246 2 1.3701532540271155e+00 1.0301589569686724e+01 5.8642765637392431e+00 0 0 0
35 2 -5.8940443193660763e-01 9.0725933326858421e-01 7.3345154072772161e+00 0 0 0
302 2 1.4844650001804714e+01 1.0591474167213601e+01 6.9997593743753592e+00 0 0 0
189 2 1.9147586003599752e+00 1.0614562434232603e+01 5.1024401385640572e-01 0 0 0
293 2 1.2679876336014848e+01 1.1070813123384520e+01 7.6039232520815068e+00 0 0 0
70 1 4.1644531288726112e+00 4.1675787874154124e-01 1.3159797734025769e+00 0 0 0
103 1 9.9015139577664062e+00 2.4980607560619759e+00 2.7323177237192453e-01 0 0 0
165 2 1.6537103281056353e+01 9.8165141942776801e-01 4.5045901709180436e-01 0 0 0
154 1 1.2900082482330223e+01 3.6050004160855792e-01 1.6033205491826887e+00 0 0 0
67 1 -2.1766145998146795e+00 5.1685823781794293e-01 8.3142799195732788e+00 0 0 0
187 1 1.0298012131006327e+00 1.0285244351973676e+01 5.6395686261961897e-01 0 0 0
23 2 1.2139298636493812e+00 3.6326683139557256e+00 9.5825896508163826e+00 0 0 0
485 2 1.0561497512054492e+01 7.0296134674497746e-02 7.9343985350072304e+00 0 0 0
224 2 -1.9994957132622115e-01 1.1027628924514495e+01 4.1317602296898821e+00 0 0 0
602 2 1.6232020935932972e+01 4.5918314711976347e+00 3.1540479562908724e-01 0 0 0
776 2 7.4106552238186447e+00 1.0632271192261404e+01 9.7445066618672289e+00 0 0 0
168 2 1.0688432012415552e+01 7.0889516712951721e+00 2.7075407642395050e-01 0 0 1
249 2 6.3097644952900289e-01 9.5578806625646564e+00 1.8353582541617740e+01 0 0 0
191 2 7.6218377548548588e-01 9.2896308838439854e+00 1.0425102674081231e+01 0 0 0
612 2 4.9301415640324562e+00 2.9750282111231123e+00 1.9264107570925962e+01 0 0 -1
655 1 3.6207710033513321e+00 1.0081133090869483e-01 1.7594019577892126e+01 0 0 0
607 1 6.7200399936688235e+00 2.9680527010883564e+00 9.9019132566869743e+00 0 0 0
247 1 9.9914398143804206e-02 9.0815116564600782e+00 1.8993076535734268e+01 0 0 -1
903 2 4.9526209714877947e+00 2.8271567276770881e-01 1.0329967699525445e+01 0 0 0
536 2 -2.4317705162199523e+00 2.4043384686601807e-01 1.2083644549023559e+01 0 0 0
669 2 1.2187873714659244e+01 1.5810430514230769e+00 1.0775923539583346e+01 0 0 0
809 2 1.0276469551234023e+01 1.0195295553932517e+01 1.2569385739373363e+01 0 0 0
816 2 7.3745437574779231e+00 1.1164582274430249e+01 1.5148772949386126e+01 0 0 0
728 2 -3.3641735656357543e+00 1.1004907296165294e+01 1.3818329828160099e+01 0 0 0
724 1 4.9686916946763748e-01 1.0678019093056054e+01 1.2895360498242688e+01 0 0 0
81 2 -7.8384041043388919e-04 4.1480787997129565e-01 1.8777891118317672e+01 0 0 0
794 2 1.2817290230312819e+01 1.0638947831890116e+01 1.2687713081935957e+01 0 0 0
510 2 1.4600238793943587e+00 1.0236869685672114e+00 1.4336994895088301e+01 0 0 0
988 1 7.7710308992679336e+00 5.7531430209549858e-02 1.7813726510866612e+01 0 1 0
588 2 -1.0408055438309201e+00 5.3281792362050773e+00 1.0608395949470101e+01 0 0 0
505 1 3.2571379996853551e+00 1.0615554681473494e+00 1.4289323772564002e+01 0 0 0
506 2 3.3740263927375471e+00 1.5665090845032807e+00 1.5152037642408358e+01 0 0 0
986 2 1.3690017906959456e+01 1.8696495132702812e-01 1.0706294778861517e+01 0 0 0
508 1 5.2471746547522535e-01 1.2606912395898182e+00 1.4503880122980279e+01 0 0 0
164 2 8.5542351307520565e+00 1.1262282670047219e+00 1.8873460875820992e+01 0 0 0
805 1 1.2262818525677330e+01 1.0697521308143903e+01 1.6120100469409572e+01 0 0 0
511 1 -4.0440375311916235e+00 6.2854651900255174e+00 1.4349543475474967e+01 0 0 0
512 2 -4.2270317754979114e+00 5.4886425475622458e+00 1.3818228743639709e+01 0 0 0
513 2 -3.9874195441676976e+00 5.8621781061495684e+00 1.5217686723610562e+01 0 0 0
514 1 -1.3006038188266080e+00 6.5735960040654193e+00 1.4366917546884567e+01 0 0 0
515 2 -1.2807494336798539e+00 5.8064688440496512e+00 1.5048870171517523e+01 0 0 0
516 2 -2.2162939689116317e+00 6.8180537849447385e+00 1.4287600951474396e+01 0 0 0
725 2 -2.5904357203744155e-01 1.1058340751558845e+01 1.2482297435592177e+01 0 0 0
519 2 1.9907211697749574e+00 5.3228805953931477e+00 1.8322578356422014e+01 0 0 0
518 2 8.8914147356916384e-01 4.4789561150995763e+00 1.9162824873429326e+01 0 0 -1
522 2 2.4230520540315772e+00 5.1917534080292462e+00 1.1259619032755099e+01 0 0 0
528 2 -3.5887227808884403e+00 2.8228781606142048e+00 1.9078502704863116e+01 0 0 -1
16 1 -9.7040164559944486e-01 4.9343318197644139e+00 1.9250749225342105e+01 0 0 -1
525 2 -2.1747141475924812e+00 1.9912080225417206e+00 1.0878334386810486e+01 0 0 0
824 2 2.7357571876000319e+00 7.4416578956537123e+00 1.7427419142142995e+01 0 0 0
527 2 -2.7240285512235296e+00 1.9276845818861184e+00 1.8220932152596440e+01 0 0 0
529 1 1.4992061447563270e+00 6.2232316476132779e+00 1.6900744496948167e+01 0 0 0
530 2 1.5594616775645109e+00 5.7683991748516359e+00 1.6045657632949805e+01 0 0 0
531 2 6.1764622642195199e-01 6.5403892942078965e+00 1.7002084585285587e+01 0 0 0
532 1 2.5650624141576817e+00 6.2429871969449753e+00 1.2518490365905576e+01 0 0 0
533 2 3.4842982915100684e+00 6.5822588524322052e+00 1.2313863249150147e+01 0 0 0
534 2 2.4612109009148382e+00 5.9599481065040401e+00 1.3452632996704521e+01 0 0 0
535 1 -1.8165889733402567e+00 9.2155299687168923e-01 1.2518188342561379e+01 0 0 0
524 2 -2.7391533474508383e+00 3.2714879706548676e+00 1.0027397673539218e+01 0 0 0
537 2 -9.6049309751010759e-01 6.6185301438025368e-01 1.2272518924130074e+01 0 0 0
538 1 -3.0348956185625995e+00 7.5616036970716460e-01 1.7021713859894383e+01 0 0 0
539 2 -3.9816955798126559e+00 5.4200625668536717e-01 1.7045014215651989e+01 0 0 0
540 2 -2.9398447078308174e+00 1.3670467176821315e+00 1.6256477166061284e+01 0 0 0
541 1 3.0289017255826733e+00 2.6621175530620271e+00 1.2057185401846072e+01 0 0 0
542 2 3.1204342406602059e+00 2.0810993464438976e+00 1.2865139687167444e+01 0 0 0
543 2 3.2139049808807272e+00 2.0508382372023104e+00 1.1348515219198715e+01 0 0 0
544 1 9.9898625587273671e-01 2.5960637893707896e+00 1.6820652237376194e+01 0 0 0
545 2 7.8035144895317821e-01 2.0845890481786968e+00 1.7583694868987642e+01 0 0 0
546 2 8.2010517267825733e-01 2.0186790024388834e+00 1.5994356183677368e+01 0 0 0
547 1 -3.5926346027970730e+00 4.9479046664037609e+00 1.6683060329300911e+01 0 0 0
548 2 -4.3189149480429752e+00 4.2352334835581331e+00 1.6774376198934156e+01 0 0 0
549 2 -3.5393307475605935e+00 5.2880570059799377e+00 1.7609921732617050e+01 0 0 0
550 1 -1.6283555236127647e+00 4.9467564164384967e+00 1.2266061511187054e+01 0 0 0
551 2 -9.6490686988247720e-01 4.2747678223935504e+00 1.2507485085113029e+01 0 0 0
552 2 -1.5716319646663903e+00 5.4803763622268846e+00 1.3075338988643116e+01 0 0 0
553 1 3.4591293937760144e+00 3.2853851048571565e+00 1.5961453824846316e+01 0 0 0
554 2 2.7260494026157946e+00 3.1327666837990940e+00 1.6607415140800104e+01 0 0 0
555 2 4.1999666181074833e+00 3.7733963146730072e+00 1.6405439442023557e+01 0 0 0
556 1 4.5106373807375721e-01 3.5536351241566217e+00 1.2868195492365922e+01 0 0 0
557 2 1.2718316788197175e+00 3.3992627105264588e+00 1.2381075862746497e+01 0 0 0
558 2 3.2188742884390464e-01 2.6856431655885280e+00 1.3313246893103818e+01 0 0 0
559 1 -3.8616241193138849e+00 3.6804612503490368e+00 1.2995207592041366e+01 0 0 0
560 2 -3.0576224216353793e+00 4.1738886342956718e+00 1.2637108968797374e+01 0 0 0
561 2 -3.4990015300168364e+00 3.1781754554028696e+00 1.3750856560293098e+01 0 0 0
562 1 -1.0521495870931457e+00 4.3647264102427794e+00 1.5900060047272783e+01 0 0 0
563 2 -3.6878571653519110e-01 3.9666061662009584e+00 1.6467022590056793e+01 0 0 0
564 2 -1.8499287058786575e+00 4.3841765098816561e+00 1.6438561795818586e+01 0 0 0
565 1 4.9097337722181269e+00 6.8915898683167738e+00 1.1279566472257473e+01 0 0 0
566 2 4.6733488775093655e+00 7.5562107234317626e+00 1.0666798059933638e+01 0 0 0
567 2 5.2994014171480934e+00 6.1683364504047420e+00 1.0805219737115410e+01 0 0 0
568 1 -1.3687289509629368e+00 7.1712276594504285e+00 1.7766210596163543e+01 0 0 0
569 2 -1.2140272191326140e+00 6.4072269430096132e+00 1.8327651004360447e+01 0 0 0
570 2 -7.7082932346955779e-01 7.8107986792836259e+00 1.8219622070342311e+01 0 0 0
99 2 1.3162616421209796e+01 4.2567327092086220e+00 9.8634232721039314e+00 0 0 0
572 2 -5.6320867291416850e+00 9.4778723983521029e-01 1.8538284138199611e+01 0 0 0
834 2 5.6825315612276617e+00 1.0154608313194890e+01 1.4182730970415806e+01 0 0 0
658 1 9.4039254239108363e+00 2.0012132479915754e-01 1.0816886578218229e+01 0 0 0
576 2 9.2127224124152907e-01 1.6733050468368749e+00 1.0959703492530593e+01 0 0 0
577 1 1.9063255595325117e+00 4.9349118123391076e+00 1.4624633339437818e+01 0 0 0
578 2 1.2621137590387166e+00 4.4298638997694697e+00 1.4104119818072933e+01 0 0 0
579 2 2.6001740496462693e+00 4.4024170102090601e+00 1.4933186747562553e+01 0 0 0
580 1 -2.3644581578115189e+00 2.1677913667709259e+00 1.4916287614156216e+01 0 0 0
581 2 -1.9400078025533327e+00 1.8030810378954745e+00 1.4083930389910046e+01 0 0 0
582 2 -1.9404667922022081e+00 2.9994649327705427e+00 1.5122362973878701e+01 0 0 0
835 1 1.2356155476884780e+01 8.9168273051374634e+00 9.8883721975328207e+00 0 0 0
749 2 -1.8100856649714654e+00 1.0339948933402365e+01 1.5191897521757424e+01 0 0 0
589 1 1.2635128526605657e+01 7.6003255676535419e-01 1.4787424447813475e+01 0 0 0
590 2 1.1645087576324942e+01 8.8130778432089274e-01 1.4939743451770019e+01 0 0 0
591 2 -4.9186589896976640e+00 1.5181072578377071e+00 1.5357088005466434e+01 1 0 0
592 1 1.0026904042992889e+01 1.0118200128402881e+00 1.4900375375123421e+01 0 0 0
523 1 -2.1128766183372303e+00 2.4602036903718929e+00 1.0031271437650616e+01 0 0 0
594 2 9.7345612347864972e+00 1.6636763704964548e+00 1.4162831846115145e+01 0 0 0
595 1 4.9609245214346540e+00 6.5245155188660808e+00 1.4871548730086014e+01 0 0 0
596 2 4.9142612594999111e+00 6.0075987315853547e+00 1.5689949826376489e+01 0 0 0
597 2 5.0340027111488421e+00 5.7688596083804118e+00 1.4205941366795253e+01 0 0 0
598 1 7.4692857843470399e+00 7.0636087693475273e+00 1.4398033777558668e+01 0 0 0
599 2 6.5178461668159073e+00 7.0821370653253970e+00 1.4546950912069381e+01 0 0 0
600 2 7.7187370669217863e+00 6.3959988972950343e+00 1.3713311994117321e+01 0 0 0
108 2 8.6219045376025907e+00 2.8473115104356199e+00 9.8254931867616033e+00 0 0 0
603 2 1.0456885390348221e+01 5.1272128032042961e+00 1.8232599172126108e+01 0 0 0
332 2 9.7169059289390756e+00 8.9553370717001677e+00 1.8527096084378734e+01 0 0 0
605 2 1.1260938323989903e+01 5.1084557368407815e+00 1.0718303153690565e+01 0 0 0
333 2 8.5469198540864522e+00 8.0590697689835800e+00 1.8820271635677354e+01 0 0 0
826 1 9.1479646884106689e+00 7.4832276512556541e+00 1.1231823512942411e+01 0 0 0
105 2 3.2410884735721259e+00 1.6764388613562591e+00 1.8720872089320107e+01 0 0 0
609 2 6.6937963734560366e+00 2.5194408126172521e+00 1.0773131750456594e+01 0 0 0
823 1 3.5028875344796919e+00 8.0023147303366358e+00 1.7626598258512097e+01 0 0 0
611 2 6.0468737024674502e+00 2.6916379319565178e+00 1.8301963527721423e+01 0 0 0
613 1 1.0036876161243468e+01 6.5299416131860335e+00 1.6904829018132496e+01 0 0 0
614 2 1.0771183065164704e+01 7.0722553297812656e+00 1.7226935644788909e+01 0 0 0
615 2 9.1777568354980357e+00 6.8637211529677904e+00 1.7152379861243187e+01 0 0 0
616 1 1.1393310437897233e+01 5.9145455678390961e+00 1.2343462209660901e+01 0 0 0
617 2 1.1028067497074892e+01 5.6207704023798568e+00 1.3192835391329485e+01 0 0 0
618 2 1.2156010475920029e+01 6.5140424404404547e+00 1.2511161882153290e+01 0 0 0
619 1 7.0640110529763209e+00 1.0308217551934897e+00 1.2036605359318621e+01 0 0 0