LAMMPS data file via write_data, version 3 Mar 2020, timestep = 18900000

2016 atoms
2 atom types

0.0000000000000000e+00 1.7939386413229702e+01 xlo xhi
-7.7965566781529816e-01 4.5775815644712608e+01 ylo yhi
0.0000000000000000e+00 1.9080092684409998e+01 zlo zhi
4.1685420140999262e-02 -6.6602846614529234e+00 -2.4101646756214734e-02 xy xz yz

Masses

1 16
2 2

Atoms # atomic

865 1 5.6075606327819525e+00 7.4819435836833037e+00 4.4945502048367292e+00 -4 0 -1
156 2 3.9024491137393804e+00 4.2569110627916178e+00 1.4126663256387157e+01 2 0 -2
12 2 1.6098017063130587e+00 1.2736542650684992e+00 1.3498193494750057e+01 -1 0 0
1667 2 -4.7174973459593028e+00 9.9632314472188561e+00 1.7496600168477247e+01 -2 1 -3
272 2 1.6198460503936126e+01 -5.9722070127981941e-01 4.5112756933866107e+00 -1 0 -2
153 2 1.3570237501850141e+01 1.0711601649819720e+01 7.0907678786499995e+00 2 0 0
540 2 6.9644916421628480e+00 5.3557308654953202e+00 7.3697836088076532e+00 -4 0 -4
712 1 1.0934276050790722e+01 1.3696638187651229e+00 9.8579710222690498e+00 -1 0 3
406 1 1.7094533830407563e+00 -1.8831249362648317e-01 1.6042077427221116e+01 -3 0 -3
747 2 -3.2794666062515332e+00 4.7076132291649433e+00 1.6421355607823966e+01 -3 0 0
287 2 9.2809694407777474e+00 7.9371674117275468e+00 7.1830389094356812e+00 0 0 -3
1078 1 8.9824794267441579e+00 1.0691654236073028e+01 1.8806622110839204e+01 -2 0 -1
693 2 -2.9346729770973718e+00 7.3827370413094524e+00 1.0007602821954823e+01 2 0 2
1095 2 1.3460867623417148e+01 1.0573698500062273e+01 3.4958318404644269e+00 1 0 0
867 2 6.5069230815599681e+00 7.1617643897537473e+00 4.4333251074712745e+00 -4 0 -1
1056 2 -2.7325890249790414e+00 2.2554060759054981e+00 8.3753296561155501e+00 1 0 0
1086 2 1.7204353333908617e+00 1.0324242367599213e+01 1.8177173001548322e+01 -1 0 -2
1595 2 -2.7052595464395499e+00 5.8319916308109674e+00 1.2810459713313502e+01 1 0 1
844 1 -4.0706592735898219e+00 1.8885061074180474e+00 1.7083780957464281e+01 2 0 1
542 2 1.5615989408358752e+01 4.1271642564165258e+00 2.1919043443986777e+00 0 0 2
697 1 9.8332143449874732e+00 4.1127503690311285e+00 1.6871806633661272e+01 2 0 3
956 2 5.7157510172295014e+00 5.4848906374431072e+00 7.9406783782102230e-01 -4 0 -2
922 1 7.7876961997285239e+00 3.3363887396436978e+00 1.2904435361587256e+00 0 0 -2
736 1 5.0393717783101355e+00 2.4355544680655128e+00 8.1682106332405340e+00 -2 0 0
473 2 4.4458646428680337e+00 6.0989702167968209e+00 1.6459767330327839e+01 2 0 0
939 2 8.6847990720829991e+00 9.6586994365434720e-02 1.3014432765260381e+01 1 0 0
996 2 1.2857202748333656e+00 7.6550370592982446e+00 4.5382135608820917e-01 3 0 0
1666 1 -2.9466960204967307e+00 9.1584289222898132e+00 1.2393188093751860e+01 0 0 0
842 2 4.0696527589834766e+00 3.5163720058515957e-01 3.3923857023089994e+00 -5 0 -4
1568 2 6.6023089194813167e-01 6.9021175207648930e+00 1.1506074562817941e+01 1 0 1
206 2 1.8552914483700489e+00 2.9829936816780975e+00 5.4053081364290314e+00 3 0 0
1082 2 1.1184664354898734e+01 2.3595152331867268e+00 1.4823702699802725e+01 0 0 0
458 2 5.5735824804328065e+00 8.8697497783464865e+00 7.7129591001725748e+00 -3 0 -2
403 1 3.4307652221036653e+00 4.6999360460372053e+00 7.9993403000561143e+00 3 0 1
260 2 8.2198854935515655e+00 5.6759084714227734e+00 4.4068475872551032e+00 -2 0 1
537 2 1.5474864231214703e+01 2.1788836910314422e+00 9.1327817941622447e-01 -4 0 3
511 1 1.1913153529015323e+01 8.0580161176693359e+00 4.3894345145252052e+00 1 0 0
191 2 1.3338014133975788e+01 4.5393557344592717e-02 3.1866797003385243e+00 -3 0 -2
984 2 6.2243730344066197e+00 5.2466681808421294e+00 1.0572068916316898e+01 0 0 0
1560 2 1.1732456951405408e+00 4.2229687864221779e+00 8.3232387648451045e+00 -1 0 0
625 1 5.0012323036292443e+00 1.0788691226274590e+01 8.3213550792425579e+00 0 0 -1
1569 2 4.4382129035687035e-01 8.5715642997340158e+00 1.1382180780048307e+01 1 0 1
561 2 -8.2333030582945099e-01 7.5526410285632721e+00 1.7174238832238132e+01 -1 0 0
635 2 -6.8757078313605824e-01 6.6369780618118357e+00 8.3689584570554327e+00 3 0 -1
872 2 7.9563349671002221e+00 4.8316313208439676e-01 9.1454425149803971e+00 -2 0 -1
659 2 -3.0040860762325696e+00 8.8040325989043087e+00 1.3311256741903396e+01 0 0 0
154 1 2.9832784984281240e+00 4.4528807255018004e+00 1.3937505593174015e+01 2 0 -2
1133 2 3.0448428663636862e+00 5.9102957050410643e+00 1.0884554273948146e+01 0 0 -2
1631 2 1.1047603152721127e+01 2.2767228727457280e+00 1.8842059464719149e+01 -1 0 -1
1035 2 5.2563350496047745e+00 1.7324466223355381e+00 1.3585054059888467e+01 0 0 -1
439 1 1.1227512263133367e+01 4.7404163392450167e+00 6.2584597045411069e-02 -3 0 -1
539 2 7.3975156287775494e+00 5.5240797007963867e+00 8.8558915619202416e+00 -4 0 -4
83 2 -4.7551162719739137e-01 2.9504943247086923e+00 1.2645545182386314e+01 1 0 -4
348 2 -2.6539357544095705e+00 2.8168928897700543e+00 1.7672136909338466e+01 -2 0 -4
788 2 1.0510635382452296e+01 8.4187725157037505e+00 8.8814010520500286e+00 -2 0 -1
179 2 -2.3940225612133466e+00 3.1337224244165207e+00 1.5025537339792075e+01 -4 0 -3
994 1 3.3198017116708756e-01 7.8920599353423171e+00 2.6157853089450434e-01 3 0 0
215 2 1.3572219232218560e+01 1.9080887553462444e+00 5.2259651178070596e+00 -1 0 -1
340 1 6.5940758713935743e-01 9.5782328785305779e+00 6.5892656188688665e+00 -1 0 0
1026 2 1.2170032752986794e+01 6.8232324431031151e+00 1.4130615301729806e+01 -3 0 -3
993 2 1.3083220575537641e+01 7.6107283765907319e+00 3.4296536516475917e-01 0 0 1
846 2 -4.8581621712742376e+00 2.3856411161745359e+00 1.7359149613130633e+01 2 0 1
368 2 -9.3011539641325269e-01 7.4741215233537890e+00 1.2794850552311345e+01 -2 0 1
819 2 1.0518715406687535e+00 2.4556312152013580e+00 2.7528109718507374e+00 2 0 3
915 2 7.1763661254011035e+00 -4.1418966580743444e-01 1.7324402713472775e+01 0 0 2
957 2 4.2168530819105241e+00 5.7951128959596172e+00 5.6950337399852280e-01 -4 0 -2
605 2 -3.7758769914871415e-01 3.8250295192087842e+00 1.6608255219350628e+01 0 0 1
1025 2 1.2950832421916280e+01 6.2290462471113344e+00 1.3055680219293006e+01 -3 0 -3
1535 2 6.3085625731963173e+00 3.4624977431901138e+00 9.3517782073704936e+00 1 0 0
417 2 9.3878497987098832e+00 3.9689152382043504e+00 9.3709110485955698e+00 0 0 -2
14 2 1.1040860044035041e+01 8.9357737307093235e+00 1.2486412149836417e+00 -5 0 -1
263 2 2.9513067153462407e+00 9.2854637573846546e+00 1.4615556676881441e+01 -1 0 -1
1077 2 8.4942150030511421e-02 1.0204316988282747e-01 1.6952728273549511e+01 1 0 -1
128 2 -2.5086364741162015e-01 9.5548228495630241e+00 8.0961948920763493e+00 -3 0 -3
440 2 1.1406448343810055e+01 3.9683697814323891e+00 5.7945451211474841e-01 -3 0 -1
162 2 1.2524498934553357e+01 3.8116381597298252e+00 1.1161091515385097e+01 0 0 -6
556 1 1.3095553635766770e+01 4.8558435329500185e+00 7.5423062358567279e+00 -1 0 1
656 2 5.0002620392739097e+00 6.2306225258722536e+00 5.3984707204266940e+00 1 0 2
727 1 2.3372279654933958e+00 2.8580955365589458e+00 1.7831599408766518e+01 1 0 1
560 2 -2.2155084184328815e+00 6.6838201309434453e+00 1.7036686179365390e+01 -1 0 0
1055 2 1.4098268640595300e+01 1.7404328344762354e+00 9.2117230983038514e+00 0 0 0
90 2 -3.0062023941464937e+00 7.7278459799326935e+00 1.8636259966553251e+01 -2 0 -2
1076 2 -7.4871254186719227e-01 4.6895262967601958e-01 1.8075335014453458e+01 0 0 -1
262 1 2.7760193691615225e+00 9.5464308619242928e+00 1.5511921011587937e+01 -1 0 -1
979 1 8.0577991697142668e+00 1.0491811144182750e+01 1.6235463367131093e+01 -2 0 -2
818 2 -2.7650361111078547e-02 1.6629334019507640e+00 3.7097155456015964e+00 2 0 3
559 1 -1.8353800378240432e+00 7.5902730309077597e+00 1.7108063401718656e+01 -1 0 0
981 2 8.7714923387487023e+00 1.0545436481530061e+01 1.6918149809505092e+01 -2 0 -2
676 1 1.3312296544277720e+00 3.5434315149745621e-01 1.2216263041187180e+01 -2 0 0
745 1 -3.5493028969303957e+00 5.3800521755793502e+00 1.7147107453666212e+01 -3 0 0
480 2 -4.0502149422193590e+00 7.6596072767111316e+00 1.5444906195207539e+01 -1 0 -5
709 1 -4.2267274462245483e+00 4.0393874932061191e-01 1.4716630768474054e+01 -5 0 -3
969 2 1.3530954027595856e+01 -5.9654102216012428e-01 1.0071695646866345e+01 -2 0 1
602 2 5.0438801028050966e+00 8.3082391428252329e+00 1.7656756906796836e+01 -3 0 -1
1006 1 -3.3479247795498859e+00 1.5789432949251054e+00 1.2567322962814238e+01 -2 0 -3
32 2 1.0525806194701085e+01 5.8877440909824843e+00 1.0428513066828300e+01 -3 0 -4
161 2 1.3359544701555574e+01 2.6709012851466460e+00 1.2022009883471284e+01 0 0 -6
1045 1 1.2119290060913901e+01 3.8433821613755681e+00 1.5083756833505154e+01 -1 0 -1
43 1 2.8697368161734267e+00 4.4039836985888470e-01 8.0377366134172838e+00 0 0 0
1529 2 6.4837344892463760e+00 6.0293581957873288e+00 1.2690740253727739e+01 -2 0 -1
167 2 4.5528179551425909e+00 3.0536808996013813e+00 1.1483018579300303e+01 -4 0 -6
584 2 7.6566945816882823e+00 3.7100326462870568e+00 5.8271115478226099e+00 -6 0 -3
1639 1 1.0803532061790810e+00 6.1211142957671409e+00 2.6070395993571549e+00 0 0 1
1407 2 9.9055226970971333e+00 -2.2770304076147552e-01 1.6763896118910498e+01 2 0 -2
528 2 -3.1469279132590766e-01 7.5796663305155509e-01 1.5902758453231978e+00 -1 0 -1
276 2 9.1285415161765400e+00 3.7072882875757616e+00 4.5414800012206511e+00 1 0 -1
1093 1 1.3030914064897649e+01 9.8612038156430000e+00 2.9952418074139584e+00 1 0 0
713 2 1.0509182258097139e+01 2.1846595759245671e+00 9.3903890557856062e+00 -1 0 3
360 2 2.2585531684987790e+00 1.2681434827732163e+00 9.4835729558677286e+00 1 0 -1
10 1 1.7539107433376708e+00 1.8102111814703155e+00 1.4283884543754034e+01 -1 0 0
1008 2 -2.3946268702623890e+00 1.7485541422801218e+00 1.2566145820593347e+01 -2 0 -3
404 2 3.4831937968704327e+00 5.3542142858591388e+00 8.6906761922686577e+00 3 0 1
21 2 1.2821495645012661e+01 6.3098338491573616e+00 1.0403077978312590e+01 -5 0 -3
305 2 8.4753602853700070e+00 2.7946904249747582e+00 2.5894520447005496e+00 0 0 -3
212 2 1.2648265680602293e+00 6.5392930559726006e+00 6.9611295925813286e+00 -3 0 -2
1009 1 -1.0388791988232775e+00 1.7822440842173743e+00 1.4849045706532831e+01 0 0 -1
840 2 2.7716651933435612e+00 7.4031749611145621e+00 5.7758905181132825e+00 -2 0 -5
180 2 -2.9536794197345486e+00 4.3771382422600746e+00 1.4383469035132416e+01 -4 0 -3
256 1 2.4468308264013094e+00 7.0212764383517534e-02 3.9276727095508224e+00 -1 0 0
304 1 9.1237529136176949e+00 2.3339543453572027e+00 3.1906535276082195e+00 0 0 -3
319 1 2.6987794155077127e+00 2.7085995655958666e+00 1.9797001401152530e+00 -5 0 -3
558 2 1.3603889114747773e+01 5.6114536406842577e+00 7.0934039429283553e+00 -1 0 1
673 1 1.4477084037430194e+01 -2.2884713261283918e-01 6.9770138456871340e+00 0 0 -3
787 1 1.1163296369725757e+01 9.0368989684223937e+00 9.2685756308521459e+00 -2 0 -1
1558 1 5.9498237163880674e-01 3.9584714136322878e+00 9.0928304154244373e+00 -1 0 0
723 2 1.0377711116828783e+01 1.0282213645312170e+01 9.2690173734297652e+00 -5 0 0
579 2 7.8618691142630128e+00 1.3594561447562596e+00 1.1033635249117912e+01 -1 0 0
518 2 1.1358455672250807e+01 6.7089924915081522e-01 4.0079822304873609e+00 -4 0 -4
526 1 1.7633911350858188e+01 3.6029254978219560e-01 7.4007766215469584e-01 -2 0 0
478 1 -4.8185828779922550e+00 7.3777431010712071e+00 1.5936862805840576e+01 -1 0 -5
640 1 -2.5759936761172777e+00 8.8948178238046420e+00 1.5057199885085780e+01 3 0 -2
873 2 8.5715877602561594e+00 -6.0804295786402740e-01 1.0098218657546326e+01 -2 0 -1
937 1 8.1013359071991964e+00 -3.8244667676106342e-01 1.3689075019823171e+01 1 0 1
411 2 1.6371038793463683e+01 7.5975217540618853e+00 3.7894968527563879e+00 -1 0 -1
527 2 6.3749941448230363e-01 4.0852191087968337e-01 4.4805099937051018e-01 -1 0 0
1081 1 1.0483086988118018e+01 1.6568100777721408e+00 1.4771039397789876e+01 0 0 0
698 2 9.8955982633548523e+00 4.8556207231272968e+00 1.7538964791151511e+01 2 0 3
1067 2 1.5758652309839333e+01 6.1150017628357825e+00 2.8131451486843574e-02 1 0 0
207 2 3.2827521593460967e+00 2.2787704156833124e+00 5.6131223122392777e+00 3 0 0
660 2 -3.7528933480472952e+00 9.7684023382448633e+00 1.2302730971404849e+01 0 0 0
397 1 1.0716041074302316e+01 -4.4813195528789135e-01 1.6250145416679263e+01 2 0 -2
1054 1 1.4268993434503120e+01 2.4668657139051788e+00 8.5757150316957240e+00 0 0 0
15 2 1.1210330423564260e+01 1.0178894284595662e+01 2.0473252929657146e+00 -5 0 -1
111 2 8.9576130621361227e-01 4.9366601906172107e+00 4.1448806005087873e+00 0 0 -4
232 1 7.1058765104227621e+00 6.0773635907943424e+00 1.3742491258145828e+00 -2 0 1
657 2 5.1784245074942845e+00 4.7140349194011781e+00 5.9170735119293028e+00 1 0 2
536 2 1.4501643124094262e+01 1.0204499631247106e+00 1.3456987381455690e+00 -4 0 3
1592 2 2.4371978605299862e+00 7.1080559183056220e+00 1.5995804111846825e+01 1 0 0
619 1 7.5408707166477162e+00 2.0728862554239535e+00 1.5292218608844513e+01 -5 0 -1
729 2 2.1988542218054565e+00 1.9031436399678290e+00 1.7993809148475709e+01 1 0 1
583 1 6.8335922462201033e+00 3.7013744390754191e+00 6.4514915205690828e+00 -6 0 -3
935 2 4.4347620389389402e+00 4.7292875286257816e+00 4.0174236866836779e+00 -2 0 -1
642 2 -2.4368516994114287e+00 8.3160639652584258e+00 1.5883439058636741e+01 3 0 -2
337 1 1.4720642652689753e+00 5.5376012615961452e+00 1.1582153401655445e+01 -1 0 0
923 2 8.2868104907548297e+00 3.2910264105553821e+00 4.3003512454385534e-01 0 0 -2
1047 2 1.1914638238288170e+01 4.4986546398585077e+00 1.5709867031615872e+01 -1 0 -1
479 2 -5.0773563887350317e+00 8.2589985134436468e+00 1.6265845103428255e+01 -1 0 -5
31 1 9.5799391952635808e+00 5.7150449136114814e+00 1.0641084488806994e+01 -3 0 -4
1024 1 1.2267770624129543e+01 6.8904187144363229e+00 1.3184008440303662e+01 -3 0 -3
264 2 3.6225558484903777e+00 9.3445424395305654e+00 1.6001378303347913e+01 -1 0 -1
924 2 7.3341718230586093e+00 4.1844780693494696e+00 1.1587732284649150e+00 0 0 -2
634 1 -1.2261607128886711e+00 6.9244594507780164e+00 9.1460023233532546e+00 3 0 -1
476 2 1.5425888971985373e+01 4.5887291443224125e+00 4.4414853994146437e+00 0 0 4
692 2 -3.4154304117529546e+00 8.1875656900740790e+00 1.1286723547052190e+01 2 0 2
936 2 4.3650584041896909e+00 4.5248355875745778e+00 2.5268406411681608e+00 -2 0 -1
512 2 1.2190261877646147e+01 8.8019204075665591e+00 3.7366528409340551e+00 1 0 0
234 2 7.4330916274313186e+00 5.9433669966191083e+00 2.3050230661295803e+00 -2 0 1
158 2 1.5013052314257862e+01 6.2571174831934488e+00 2.8644821107098393e+00 1 0 -1
359 2 2.6281447266912550e+00 2.4868110534927692e+00 1.0488043804039025e+01 1 0 -1
711 2 -3.7127245136523164e+00 -3.0643419677432154e-01 1.5171500715705276e+01 -5 0 -3
475 1 1.6029833599826599e+01 4.1659246231327156e+00 5.0870055413674597e+00 0 0 4
604 1 4.7064505018693215e-01 4.2150925584269485e+00 1.6380224950959747e+01 0 0 1
806 2 2.0755822520401690e+00 5.8945969994750156e+00 1.7629140911328111e+01 -4 0 -1
719 2 7.9656760301790328e+00 1.2862282462651948e+00 6.8673108006534624e+00 -3 0 -3
129 2 -6.3804173853631996e-01 8.7164853374073150e+00 9.3474366157603974e+00 -3 0 -3
1651 1 1.3891087245675823e+01 7.1637553358737707e+00 6.2794182525358417e+00 0 0 -1
696 2 1.1672810531114443e+01 2.9303484686662977e+00 5.5441428376855848e+00 -3 0 -2
1559 2 7.3060621582940621e-01 3.0182173700461044e+00 9.3308476114883963e+00 -1 0 0
606 2 1.0987371953769056e+00 3.7339328743879747e+00 1.6994519177063278e+01 0 0 1
367 1 -1.3547013052566448e+00 6.9419602026690388e+00 1.3516932153496724e+01 -2 0 1
916 1 2.9049135278378815e+00 7.8213236124420416e+00 4.0139662430143748e+00 1 0 3
1534 1 7.0861789988433408e+00 3.9029169716822016e+00 9.7567046538117648e+00 1 0 0
261 2 8.3011928078756707e+00 7.1581591102889002e+00 3.6983920283075151e+00 -2 0 1
972 2 5.4125317510673652e+00 1.3643980434103136e+00 4.5600725193181031e+00 0 0 1
96 2 1.0132953008153409e+01 9.2205104508088755e+00 1.2187502981742185e+01 -2 0 -1
286 1 9.4138713956512206e+00 7.2972974942896904e+00 7.8810780906484261e+00 0 0 -3
205 1 2.3126557966367924e+00 2.1600265436491628e+00 5.7230294646697653e+00 3 0 0
74 2 5.8916424502596207e+00 6.5590579196823207e-02 1.0434556701821183e+01 -4 0 1
497 2 5.4624589701478197e+00 4.3080833831541741e+00 1.5699154650108452e+01 -2 0 0
932 2 -2.7583421283181178e+00 3.7153337112376761e+00 9.5942676627581402e+00 -5 0 -1
235 1 4.8415266382740079e+00 2.0429643761800635e+00 1.7097418035155528e+01 0 0 0
38 2 1.0497513459813828e+01 6.1609253951376863e-01 1.1399743026155880e+01 -5 0 -3
572 2 1.2006909058586235e+01 -6.8616431313130599e-01 4.2157913512561768e-01 2 0 5
611 2 6.5494756260113132e+00 7.6801950095634322e+00 1.4249262566483642e+01 -1 0 2
624 2 6.7510307999951706e+00 1.6539576549736084e+00 1.0055622187046869e+00 -1 0 -1
1520 2 9.1049561261786742e+00 8.8207211244425903e+00 4.8485328129094638e+00 0 0 1
369 2 -1.6759649453848269e+00 7.6052352083746708e+00 1.4092364787506902e+01 -2 0 1
213 2 4.8101009723237143e-01 5.3942376218121231e+00 6.2673565354297835e+00 -3 0 -2
995 2 1.7734779380996429e+01 7.1003491905696201e+00 1.1170918407118312e-01 2 0 0
603 2 5.1866618772134760e+00 9.6964137461238007e+00 1.7250881811857298e+01 -3 0 0
585 2 7.0424890552944772e+00 3.1266516090705045e+00 7.1991925280497719e+00 -6 0 -3
918 2 2.4420898211991728e+00 8.6134023936777186e+00 4.2096534540537949e+00 1 0 3
1596 2 -3.3631406087085853e+00 4.9538464709181866e+00 1.1801927984540580e+01 1 0 1
843 2 5.0049004197027411e+00 8.2306219338855779e-01 2.1384184223084883e+00 -5 0 -4
1003 1 -9.6352857222966426e-01 -4.5449624641676384e-01 1.3251238338238469e+01 -2 0 -1
610 1 6.2244099067326033e+00 8.6037800275045395e+00 1.4390335557525622e+01 -1 0 2
967 1 1.4045070446516807e+01 2.6851285713430850e-01 1.0201197105769014e+01 -2 0 1
947 2 1.1653105400345298e+00 8.7440574911906577e+00 1.6338672487541281e+01 0 0 3
1085 2 9.3222750500351470e+00 9.8580897484029304e+00 2.5437627679309055e-01 -1 0 -1
259 1 7.7990024474122155e+00 6.2965880741855251e+00 3.7460474677207976e+00 -2 0 1
127 1 -6.1023645162180618e-01 9.6689913687552398e+00 8.9981637194446726e+00 -3 0 -3
306 2 9.9071712864618320e+00 2.3093060434842401e+00 2.6468976325397620e+00 0 0 -3
408 2 2.4027780486526158e+00 -5.5524195351236716e-01 1.6702390244243848e+01 -3 0 -3
959 2 2.5428144618125148e+00 9.8308652768925739e+00 1.0635010861139754e+01 0 0 -1
970 1 5.1706396143347320e+00 1.6452336720714182e+00 5.4869014005158085e+00 0 0 1
1408 1 8.2136893970585714e+00 7.0709361903380530e-01 5.2577181118835634e+00 -1 1 0
109 1 7.5497233520548557e-01 4.2887455671804569e+00 4.9074817408577971e+00 0 0 -4
686 2 -8.5845937738359401e-01 7.0669238413445985e+00 5.8862197006142489e+00 -2 0 2
710 2 1.2947920440572364e+01 8.7366405301991801e-03 1.4280761989154371e+01 -6 0 -3
1010 2 -1.1388783209781739e-01 2.0081168711491584e+00 1.4777575403781634e+01 0 0 -1
832 1 9.3433750733178975e+00 5.4850912665395786e+00 1.4868034865175117e+01 -5 0 -3
415 1 9.7643027407560261e+00 3.3500589407938488e+00 8.6848136391030337e+00 0 0 -1
243 2 -9.4814003117120249e-01 8.3972536744153770e-01 1.0612728770575753e+01 1 0 -1
177 2 4.3916265289806971e+00 -8.7576796615529862e-02 1.4441095427628698e+01 -5 0 1
457 1 5.1866854995107401e+00 8.0064848488447922e+00 7.5812609915161264e+00 -3 0 -2
1641 2 1.7582673342473365e+00 6.7739572308858964e+00 2.9108871659460758e+00 0 0 1
780 2 8.1279478379902379e+00 8.4491228281955024e+00 1.1354083084612322e+01 1 0 -1
163 1 1.0525090608807899e+01 5.2564803207142186e+00 7.0518957410555805e+00 0 0 -1
678 2 3.6487785617558366e-01 1.8242916258102959e-01 1.2520865087794755e+01 -2 0 0
1112 2 8.2890474956663347e+00 6.9310496939104809e+00 1.6541141005535721e+01 -1 0 0
866 2 5.6996100654382218e+00 8.2790210741765069e+00 5.0753685221617246e+00 -4 0 -1
308 2 4.1017937953898267e+00 8.8072623441135338e+00 1.2066525548670530e+01 -2 0 1
257 2 2.8361738242810119e+00 -6.6542992151531022e-01 4.4408952086649673e+00 -1 0 0
241 1 -1.0669889704765168e+00 2.8490586602929779e-01 9.8096794688937692e+00 1 0 -1
192 2 1.4412791418636361e+01 1.0116841927002529e+00 3.4940521168065080e+00 -3 0 -2
771 2 1.2716064184150975e+01 9.2785948712271757e+00 8.4933679333628760e+00 0 0 -1
358 1 1.8656420168134780e+00 1.8824484065481641e+00 1.0163794938745346e+01 1 0 -1
1005 2 -1.1190533252385744e+00 3.8703044095994033e-01 1.3849153728579243e+01 -2 0 -1
578 2 8.6292805886214143e+00 2.5073609231747045e+00 1.1964729721836902e+01 -1 0 0
84 2 -1.0491225111633811e+00 3.1105872872942530e+00 1.1131753085876113e+01 1 0 -4
1593 2 2.6213182922493949e+00 5.8425834546416375e+00 1.5042507023902356e+01 1 0 0
178 1 -3.0065551312376879e+00 3.8372751159529459e+00 1.5193806522773423e+01 -4 0 -3
1653 2 1.3156162580152209e+01 7.3665711541601429e+00 5.7259267091308246e+00 0 0 -1
649 1 5.3886060113010323e+00 -6.5737831290918292e-01 6.9023959641628130e+00 -4 0 0
499 1 6.3652894894271244e+00 1.0341751418534255e+01 5.5268260433171603e+00 0 0 3
623 2 5.5718923287416580e+00 2.0805185123829175e+00 1.0474845107942514e-01 -1 0 -1
175 1 5.0983274793979803e+00 4.0463666776144236e-01 1.4929429329068377e+01 -5 0 1
427 1 9.9431598202512177e+00 3.9163842342128214e+00 1.2635262786741954e+01 -2 0 -2
543 2 1.6946092479256269e+01 3.2521811658243314e+00 2.3438288380247769e+00 0 0 2
299 2 -4.6067765455576115e-01 9.0001401513517525e+00 3.2053148359498960e+00 0 0 -1
186 2 7.8961203716096646e+00 3.7108377696409258e+00 1.7349507726665863e+01 -4 0 -6
620 2 7.6935543130696971e+00 1.4777307226612484e+00 1.6130138688437114e+01 -5 0 -1
361 1 8.6996109018813339e-01 1.0263797919538218e+01 1.1019045386869285e+01 0 0 -2
502 1 -1.1695038974921275e+00 2.2633255454837937e+00 7.6293832377585868e+00 0 0 -1
1134 2 3.1633335106211380e+00 7.2925696130439501e+00 1.0230159938805681e+01 0 0 -2
687 2 1.5595425412796034e+01 7.2634158606505679e+00 5.8778836903365477e+00 -3 0 2
982 1 6.0237482347433513e+00 6.1067826386476423e+00 1.0991201525628860e+01 0 0 0
963 2 8.2955826310581422e+00 -3.0245282744620972e-01 2.2774523422008700e-01 -3 0 0
494 2 2.6338471209572996e+00 1.2671950322940400e+00 1.0462146754084234e+00 -3 0 -2
839 2 3.5699313254433851e+00 7.7644270254538803e+00 7.0083840040760368e+00 -2 0 -5
251 2 4.5513267041051257e+00 1.0763710500534941e+01 4.8439913069541785e+00 -1 0 3
955 1 4.8211597949195122e+00 5.0605687229541187e+00 6.9414988134678224e-01 -4 0 -2
164 2 1.1473287880226586e+01 5.3538234578830961e+00 7.1577339521907781e+00 0 0 0
805 1 2.1683416767351966e+00 5.9107792541203397e+00 1.8604222925362503e+01 -4 0 -1
699 2 9.5985599703351276e+00 4.4901108276100317e+00 1.5987274276528025e+01 2 0 3
165 2 1.0141682452863279e+01 6.1077208626336166e+00 7.4392037365143171e+00 0 0 -1
674 2 1.3516911301566674e+01 -3.4187208490082582e-01 7.3200614262938046e+00 0 0 -3
166 1 3.7906279519447996e+00 3.6134975463383547e+00 1.1179651232963492e+01 -4 0 -5
339 2 1.3240664667936848e+00 5.0333248855870245e+00 1.2359977470836849e+01 -1 0 0
675 2 1.5135646936137984e+01 -7.1075582283536309e-01 7.4695439545569000e+00 0 0 -3
938 2 8.0544975132597898e+00 2.3669957666522845e-01 1.4430816892116356e+01 1 0 0
48 2 1.1040877045410802e+01 -3.0429474402758766e-01 7.0365785708989259e+00 -3 0 1
1011 2 -1.1306766223492772e+00 1.4300393255669963e+00 1.5758534997314884e+01 0 0 -1
1150 1 1.2083555855146191e+01 5.9299056383830271e+00 2.8436265836864663e+00 0 0 0
1652 2 1.3877810941471612e+01 7.7597048746369701e+00 7.0220464109816678e+00 0 0 -1
913 1 7.9753910535288810e+00 9.6598375265271041e-02 1.7182562581211819e+01 0 0 2
237 2 5.6710434498627587e+00 2.4696142592415726e+00 1.7208655251688917e+01 1 0 0
95 2 1.1273959501222562e+01 8.2064404619923312e+00 1.2586531644057542e+01 -2 0 -1
1068 2 1.6605895768598437e+01 4.8920943115619000e+00 5.0410493319346572e-01 1 0 0
236 2 4.9180747239872957e+00 1.5698596797901172e+00 1.6220739351013432e+01 0 0 0
33 2 9.1565133432830148e+00 6.5929032396207878e+00 1.0503440482899880e+01 -3 0 -4
1046 2 -4.8420437565229237e+00 3.6954639651333228e+00 1.5136648196795466e+01 0 0 -1
934 1 4.4398040478552918e+00 4.0556118322822661e+00 3.3474045003823938e+00 -2 0 -1
45 2 3.8278825852639256e+00 2.5354276923407792e-01 7.9927125966974675e+00 0 0 0
541 1 1.6375068118701989e+01 3.7508274974628035e+00 1.7171816858666911e+00 0 0 2
577 1 7.7643602894264054e+00 2.2031023538252072e+00 1.1515570749182999e+01 -1 0 0
1591 1 3.0569500400974583e+00 6.5657797940286198e+00 1.5519851464922739e+01 1 0 0
789 2 1.1135206691832105e+01 8.8858422608413115e+00 1.0264849392121883e+01 -2 0 -1
971 2 5.7710222999001424e+00 2.3491418463515181e+00 5.7140913414052514e+00 0 0 1
621 2 8.4468502712982669e+00 2.3390109871663558e+00 1.5100658620721950e+01 -5 0 -1
443 2 1.9042897471023479e-01 4.0126951085058837e-01 5.5739525038570079e+00 4 0 2
513 2 1.1133359788580732e+01 8.4298146637766997e+00 4.8283186492127905e+00 1 0 0
363 2 5.0544419394141871e-01 1.0264645777035790e+01 1.0144600897513666e+01 0 0 -2
338 2 1.1182149783275777e+00 4.9622600383233593e+00 1.0838133942037709e+01 -1 0 0
778 1 8.0038196448871624e+00 8.0239199968128059e+00 1.0509987669148437e+01 1 0 0
720 2 8.4899880160766070e+00 2.2018711896518477e+00 8.0601789354574933e+00 -3 0 -3
481 1 1.1379916790674695e+01 2.4073787640777704e+00 1.5758351974502713e+00 -2 0 -2
946 1 7.9710030827366651e-01 8.0498889512935090e+00 1.6944624846353410e+01 0 0 3
20 2 1.2612894523195664e+01 5.2991654975597804e+00 9.2475682563630439e+00 -5 0 -3
1663 1 4.5223704887170193e+00 5.3991444847419636e+00 5.7899422823131879e+00 1 0 2
495 2 -4.0345199082788099e+00 9.1485764048254237e-01 1.8574846885210544e+01 -3 0 -3
1632 2 1.0943071427821906e+01 3.2280918902860378e+00 1.7631513879707569e+01 -1 0 -1
459 2 5.6969281280381345e+00 7.3865665185612581e+00 8.1083941170435381e+00 -3 0 -2
738 2 4.8750385912154641e+00 2.0114217461391499e+00 9.0248010276886479e+00 -2 0 0
222 2 9.3253185471759039e+00 -5.5169918530710726e-01 6.0200761368326443e+00 -5 0 -3
321 2 3.2793772174070384e+00 2.9762720660084101e+00 2.7580821463553962e+00 -5 0 -3
1665 2 9.3420394250429197e+00 9.0978386076250288e+00 2.9492268766980492e+00 -5 1 -2
677 2 1.4081164930417787e+00 1.0367451666908070e+00 1.1482296702256130e+01 -2 0 0
661 1 -1.2946217450264363e-01 4.3587882822189492e+00 1.3698719897652571e+01 -4 0 0
503 2 -5.0721603974109808e-01 2.8842913792342908e+00 7.9087523282617900e+00 0 0 0
1567 1 9.3819555010174582e-02 7.6711456196970627e+00 1.1373313323627528e+01 1 0 1
991 1 1.2126920072001591e+01 7.7216833007446599e+00 3.4599737728430324e-01 0 0 1
409 1 1.6343298347801589e+01 7.4951288071884736e+00 2.8053675299874667e+00 -1 0 -1
155 2 2.5491795353433533e+00 3.6072101654635356e+00 1.4046313753953873e+01 2 0 -2
184 1 7.0545561804562880e+00 3.4003815374208868e+00 1.7699942881599682e+01 -4 0 -7
307 1 4.0917680618091401e+00 9.2463265386318625e+00 1.2883467656935101e+01 -2 0 1
1075 1 -8.3854882488086258e-01 2.3207095054532756e-01 1.7116046049987517e+01 0 0 -1
845 2 -4.2074289321620455e+00 1.6050086684725167e+00 1.6169110911120718e+01 2 0 1
1094 2 1.3704523270000120e+01 9.5155208493420869e+00 2.2899585705333663e+00 1 0 0
685 1 -1.5110074377133400e+00 7.6575395750360187e+00 5.5209181265147356e+00 -2 0 3
917 2 3.8606405353708162e+00 7.9499855274704547e+00 3.8122755936265631e+00 1 0 3
833 2 8.4716709942603803e+00 5.5158225663163325e+00 1.4417134374922458e+01 -5 0 -3
834 2 9.9277759283043334e+00 5.1184345871041463e+00 1.4206116314647437e+01 -5 0 -3
538 1 7.1351434179340130e+00 5.9946760638478755e+00 8.0491063007838104e+00 -4 0 -4
211 1 3.8005989826740061e-01 6.2181753566953946e+00 6.8403649612293957e+00 -3 0 -2
498 2 6.3639365845606006e+00 3.2214566859596925e+00 1.5017900604054583e+01 -2 0 0
309 2 4.7290452760801065e+00 8.7197628824019784e+00 1.3438372759972506e+01 -2 0 1
216 2 1.4648397566110040e+01 1.0918356632353019e+00 5.8121795039350035e+00 -1 0 -1
477 2 1.5620631302969546e+01 3.2821585419065737e+00 5.0640668101831459e+00 0 0 4
968 2 -3.8358491085192057e+00 5.8704495114651500e-01 1.1123202039499816e+01 -1 0 1
612 2 5.7154483880515077e+00 8.5395154801471573e+00 1.5248455161335837e+01 -1 0 1
410 2 -7.8442111818766702e-01 7.0744507573577202e+00 2.5462149859858720e+00 0 0 -1
347 2 -1.8589386119413085e+00 3.9012519764260469e+00 1.8459193328327014e+01 -2 0 -4
75 2 5.1148218321658092e+00 8.3065333180770273e-01 1.1435162906008863e+01 -4 0 1
1033 1 5.5067845521739480e+00 2.0087562428585706e+00 1.2668987518159133e+01 0 0 -1
933 2 -1.9009428065393232e+00 4.9589792496336011e+00 9.7360187058507695e+00 -5 0 -1
496 1 5.6001032291186794e+00 3.8177325804456457e+00 1.4846319704038153e+01 -2 0 0
769 1 1.3591500499665537e+01 9.0413262427852583e+00 8.2277982935873144e+00 0 0 -1
658 1 -5.5755119926434444e+00 9.5929090189097863e+00 1.7297584019082763e+01 -2 0 -3
960 2 3.6911997266793826e+00 9.5522420126567109e+00 9.7154954333980097e+00 0 0 -1
1490 2 1.2003495677734602e+01 2.3060191077120025e+00 2.2866223585021426e+00 -3 0 -2
1664 2 7.8083463106089992e+00 8.9784032850795974e+00 2.8020211191574793e+00 -5 1 -2
320 2 2.6477543501527183e+00 3.4052859845975352e+00 1.3145540050629150e+00 -5 0 -3
233 2 7.7452260441550909e+00 5.9342474773216312e+00 6.1578044080218097e-01 -2 0 1
1640 2 1.5241207717884944e+00 5.6156145119751812e+00 1.8685595508098309e+00 0 0 1
517 1 1.1607300487958778e+01 -1.7741621795242335e-01 3.6668830962089873e+00 -4 0 -3
275 2 9.6194121224286100e+00 4.7926915179621536e+00 5.7182699859769945e+00 1 0 -1
1594 1 -3.4201888797875997e+00 5.1543837678165225e+00 1.2759735083906541e+01 1 0 1
519 2 1.0796131985679796e+01 -6.8102707041690502e-01 3.3636354759881928e+00 -4 0 -3
779 2 7.1876008023640061e+00 7.5006056857664820e+00 1.0540135248336760e+01 1 0 0
1536 2 7.3819879823712835e+00 3.2071011666464138e+00 1.0412844009943308e+01 1 0 -1
1668 2 -5.7771367517520265e+00 8.9884081850816830e+00 1.8079964864370808e+01 -2 1 -3
16 1 7.8724278848451279e+00 9.8385259382710935e+00 1.2524005837420175e+01 -2 0 0
185 2 7.4374293365640796e+00 2.9289443513217956e+00 1.8465376808497858e+01 -4 0 -7
82 1 -8.5799995412612029e-01 2.4348039519795099e+00 1.1899020415654356e+01 1 0 -3
1083 2 1.0524218043787522e+01 1.3690429691520025e+00 1.3809022731993707e+01 0 0 0
636 2 -8.2342847867788471e-01 6.8785788711786138e+00 1.0020190518472806e+01 3 0 -1
663 2 1.6489877816613063e-01 4.2487218259228090e+00 1.4663565661236031e+01 -4 0 0
441 2 5.2909019501732546e+00 4.7477824459936748e+00 1.8470393824451847e+01 -3 0 -1