iceIV.data (written by ASE) 

3072 	 atoms 
2  atom types
0.0      30.140194000000001  xlo xhi
0.0      28.340465999999999  ylo yhi
0.0      27.411445000000001  zlo zhi
              10.259107               10.259107      7.1968540000000001  xy xz yz


Atoms 

1 1 7.4699999999999998 5.1799999999999997 4.0099999999999998
2 2 6.6600000000000001 4.7999999999999998 3.6700000000000004
3 2 7.2099999999999991 6.0099999999999998 4.3899999999999997
4 1 9.9600000000000009 6.9700000000000006 10.809998999999999
5 2 10.51 6.5700000000000003 11.48
6 2 9.7899999999999991 7.8600000000000003 11.139999
7 1 9.9600000000000009 12.259999000000001 3.96
8 2 10.51 11.849999 4.6299999999999999
9 2 9.7899999999999991 13.140000000000001 4.29
10 1 12.539999 14.099999 10.93
11 2 13.24 14.33 10.31
12 2 11.91 13.609999999999999 10.4
13 1 14.93 5.1799999999999997 3.96
14 2 15.48 4.7699999999999996 4.6299999999999999
15 2 14.759998999999999 6.0599999999999996 4.29
16 1 17.450001 7 10.85
17 2 17.91 6.6600000000000001 11.619999
18 2 18.150002000000001 7.3399999999999999 10.290001
19 1 17.450001 12.289999999999999 4
20 2 18.150002000000001 12.619999999999999 3.4399999999999999
21 2 17.91 11.940001000000001 4.7699999999999996
22 1 20.050001000000002 14.029999999999999 10.869999999999999
23 2 20.82 14.23 10.34
24 2 19.850000000000001 14.84 11.33
25 1 11.65 8.1400000000000006 6.2599999999999998
26 2 10.950001 8.5999999999999996 5.7999999999999998
27 2 11.189999999999998 7.4800000000000004 6.79
28 1 14.18 9.9299990000000005 13.179999
29 2 14.370000999999998 9.2799999999999994 12.51
30 2 13.41 10.390000000000001 12.84
31 1 14.18 15.219999 6.3200000000000003
32 2 14.370001 14.559998999999999 5.6500000000000004
33 2 13.41 15.679999 5.9900000000000002
34 1 16.779999 17.02 13.120001
35 2 16.079999999999998 17.48 12.65
36 2 16.32 16.360001 13.65
37 1 19.18 8.1400000000000006 6.2599999999999998
38 2 18.48 8.5999999999999996 5.7999999999999998
39 2 18.73 7.4800000000000004 6.79
40 1 21.709998999999996 9.9299990000000005 13.179999
41 2 21.91 9.2799999999999994 12.51
42 2 20.940000999999999 10.390000000000001 12.84
43 1 21.709999 15.219999 6.3200000000000003
44 2 20.940000999999999 15.679999 5.9900000000000002
45 2 21.91 14.559998999999999 5.6500000000000004
46 1 24.309999000000001 17.02 13.120001
47 2 23.610001 17.48 12.65
48 2 23.859999000000002 16.360001 13.65
49 1 5.2800000000000002 3.7400000000000002 2.8399999999999999
50 2 5.4800000000000004 2.9300000000000002 2.3700000000000001
51 2 4.5099999999999998 3.5300000000000002 3.3700000000000001
52 1 7.7999999999999989 5.4199999999999999 9.7200000000000006
53 2 7.3499999999999996 5.8700000000000001 9
54 2 8.4800000000000004 6.04 10
55 1 7.75 10.789999999999999 2.8399999999999999
56 2 8.0199999999999996 9.9600000000000009 2.46
57 2 8.5600000000000005 11.17 3.1800000000000002
58 1 10.4 12.589999000000001 9.75
59 2 9.8499999999999996 13 9.0800000000000001
60 2 10.570001 11.710000000000001 9.4199999999999999
61 1 12.77 3.6200000000000001 2.8599999999999999
62 2 13.450001 4.2400000000000002 3.1400000000000001
63 2 12.32 4.0700000000000003 2.1499999999999999
64 1 15.290001 5.5099999999999998 9.7000010000000003
65 2 16.100000000000001 5.8899999999999997 10.039999
66 2 15.559998999999999 4.6699999999999999 9.3200000000000003
67 1 15.290001 10.789999999999999 2.8399999999999999
68 2 16.100000000000001 11.17 3.1800000000000002
69 2 15.559998999999999 9.9600000000000009 2.46
70 1 17.899999999999999 12.509999999999998 9.7200000000000006
71 2 17.450001 12.960000000000001 9
72 2 18.579999999999998 13.120001000000002 10
73 1 1.0600000000000001 0.69999999999999996 0.56999999999999995
74 2 1.6099999999999999 1.24 0.01
75 2 0.89000000000000001 1.2399999999999998 1.3400000000000001
76 1 3.6200000000000001 2.5499999999999998 7.3799999999999999
77 2 4.3899999999999997 2.0899999999999999 7.7199999999999998
78 2 3.4199999999999999 3.2000000000000002 8.0500000000000007
79 1 3.6400000000000001 7.910000000000001 0.57999999999999996
80 2 3.0099999999999998 7.2800000000000011 0.23999999999999996
81 2 4.3399999999999999 7.3700000000000001 0.95999999999999985
82 1 6.1799999999999997 9.629999999999999 7.3799999999999999
83 2 5.9900000000000002 10.290001 8.0500000000000007
84 2 6.9500000000000002 9.1699999999999999 7.7199999999999998
85 1 8.5999999999999996 0.69999999999999996 0.56999999999999995
86 2 9.1500009999999996 1.24 0.01
87 2 8.4299999999999997 1.2399999999999998 1.3400000000000001
88 1 11.120000000000001 2.5499999999999998 7.4399999999999995
89 2 11.820000999999998 2.0899999999999999 7.9100000000000001
90 2 11.57 3.2000000000000002 6.910000000000001
91 1 11.18 7.910000000000001 0.57999999999999996
92 2 10.549999 7.2800000000000011 0.23999999999999996
93 2 11.879999 7.3700000000000001 0.95999999999999985
94 1 13.740000000000002 9.7099999999999991 7.4399999999999995
95 2 14.440001000000001 9.1699999999999999 7.8099999999999996
96 2 13.109999999999999 9.0800000000000001 7.0999999999999996
97 1 5.2300000000000004 4.3399999999999999 5.9699999999999998
98 2 5.5499999999999998 5.0099999999999998 6.5700000000000003
99 2 4.7000000000000002 3.7599999999999998 6.5199999999999996
100 1 7.7699999999999996 6.1399999999999997 12.949999999999999
101 2 7.54 6.75 12.25
102 2 8.2899999999999991 5.4699999999999998 12.52
103 1 7.8499999999999996 11.42 6.04
104 2 7.3799999999999999 12.029999999999999 5.46
105 2 7.1600000000000001 10.889999 6.4400000000000004
106 1 10.279999999999999 13.23 12.869999
107 2 10.77 13.860001 13.400001
108 2 10.93 12.57 12.619999999999999
109 1 12.740000999999999 4.3399999999999999 6.0999999999999996
110 2 13.26 3.6699999999999999 5.6699999999999999
111 2 12.51 4.9500000000000002 5.3899999999999997
112 1 15.33 6.1299999999999999 12.82
113 2 15.650001 6.8099999999999996 13.42
114 2 14.800000000000001 5.5599999999999996 13.369999999999999
115 1 15.330000000000002 11.42 5.9699999999999998
116 2 14.800000000000001 10.84 6.5199999999999996
117 2 15.650001 12.09 6.5700000000000003
118 1 17.949998999999998 13.220000000000001 12.9
119 2 17.260000000000002 12.690001000000002 13.289999999999999
120 2 17.48 13.83 12.32
121 1 3.04 2.8300000000000001 4.1799999999999997
122 2 2.5499999999999998 3.25 4.8899999999999997
123 2 3.5 2.1099999999999999 4.6100000000000003
124 1 5.54 4.6299999999999999 11.109999999999999
125 2 6.2400000000000002 5.0300000000000002 10.58
126 2 5.9400000000000004 3.8500000000000001 11.490000999999999
127 1 5.6100000000000003 9.8800000000000008 4.3099999999999996
128 2 4.8600000000000003 9.8100000000000005 3.71
129 2 6.3300000000000001 10.190001000000001 3.7599999999999998
130 1 8.1699999999999999 11.68 11.160000999999999
131 2 7.4299999999999997 11.610001 10.559998999999999
132 2 8.8900000000000006 11.99 10.620001
133 1 10.51 2.8300000000000001 4.25
134 2 10.91 2.0499999999999998 4.6399999999999997
135 2 11.210001 3.23 3.7299999999999995
136 1 13.120001000000002 4.5499999999999998 11.09
137 2 13.860001 5.0199999999999996 10.690001000000001
138 2 12.710000000000001 5.1900000000000004 11.67
139 1 13.08 9.9199999999999982 4.25
140 2 13.780001 10.31 3.7299999999999995
141 2 13.48 9.1399989999999978 4.6399999999999997
142 1 15.640000000000001 11.720000000000002 11.109999999999999
143 2 16.34 12.109999999999999 10.58
144 2 16.039999000000002 10.94 11.490000999999999
145 1 6.79 2.1499999999999999 5.0099999999999998
146 2 7.5199999999999996 1.8899999999999999 5.5700000000000003
147 2 6.3799999999999999 2.8799999999999999 5.4800000000000004
148 1 9.3099989999999995 3.9900000000000002 11.940001000000001
149 2 9.7100000000000009 4.1600000000000001 11.09
150 2 10.01 3.5800000000000001 12.449999999999999
151 1 9.3699999999999974 9.2099999999999991 5.0999999999999996
152 2 8.8800000000000008 9.9900000000000002 5.3300000000000001
153 2 9.8300000000000001 9.4400010000000005 4.29
154 1 11.960000000000001 11.09 11.98
155 2 11.199999999999999 10.520000000000001 11.870001
156 2 12.35 11.119999999999999 11.1
157 1 14.279999999999999 2.1899999999999999 5.0899999999999999
158 2 14.98 1.78 5.5999999999999996
159 2 14.68 2.3599999999999999 4.2300000000000004
160 1 16.970001 3.9700000000000002 11.900001
161 2 16.549999 4.7699999999999996 12.220000000000001
162 2 16.27 3.3199999999999998 11.91
163 1 16.91 9.2099999999999991 5.0999999999999996
164 2 16.41 9.9900000000000002 5.3300000000000001
165 2 17.369999 9.4400010000000005 4.29
166 1 19.470001 11.009999000000002 11.950001
167 2 18.98 11.789999999999999 12.18
168 2 19.93 11.239999999999998 11.139999
169 1 8.9900000000000002 4.2999999999999998 6.1600000000000001
170 2 9.5800000000000001 3.7699999999999996 5.6299999999999999
171 2 8.3800000000000008 4.6799999999999997 5.5199999999999996
172 1 11.549999 6.0800000000000001 12.880000000000001
173 2 11.940001000000001 6.8399999999999999 13.309998999999999
174 2 11.210001 5.5499999999999998 13.609999999999999
175 1 11.490000999999999 11.369999999999999 6.0999999999999996
176 2 12.139999 10.959999 5.5300000000000002
177 2 11.970000000000002 12.039999999999999 6.5700000000000003
178 1 14.119999 13.190001000000001 13.01
179 2 13.509999000000001 13.559998999999999 12.369999999999999
180 2 14.709999 12.65 12.49
181 1 16.460000999999998 4.2800000000000002 6.0999999999999996
182 2 17.110001 3.8700000000000001 5.5300000000000002
183 2 16.940000999999999 4.9500000000000002 6.5700000000000003
184 1 19.079999999999998 6.0800000000000001 12.880000000000001
185 2 19.470001 6.8399999999999999 13.309998999999999
186 2 18.75 5.5499999999999998 13.609999999999999
187 1 19.079999999999998 11.369999999999999 6.0300000000000002
188 2 18.75 10.84 6.75
189 2 19.470001 12.130001 6.4500000000000002
190 1 21.709999 13.190001000000001 12.940001000000001
191 2 21.25 12.779999999999999 13.67
192 2 21.02 13.44 12.33
193 1 8.2899999999999991 2.5499999999999998 2.6000000000000001
194 2 7.6699999999999999 2.4100000000000001 3.3300000000000001
195 2 9.1399989999999995 2.6600000000000001 3.0299999999999998
196 1 10.809998999999999 4.3799999999999999 9.5299999999999994
197 2 10.99 3.75 8.8300000000000001
198 2 11.619999 4.4199999999999999 10.030001
199 1 10.809998999999999 9.6600000000000001 2.6800000000000002
200 2 10.99 9.0299999999999994 1.98
201 2 11.619999 9.7100000000000009 3.1800000000000002
202 1 13.369999999999999 11.460000000000001 9.5299999999999994
203 2 14.190001000000001 11.51 10.030001
204 2 13.550000000000001 10.83 8.8300000000000001
205 1 15.779999999999999 2.5800000000000001 2.6800000000000002
206 2 16.59 2.6200000000000006 3.1800000000000002
207 2 15.959999 1.9500000000000002 1.98
208 1 18.389999 4.3499999999999996 9.4600000000000009
209 2 17.77 4.21 10.18
210 2 19.239999999999998 4.46 9.8800000000000008
211 1 18.410000000000004 9.6300000000000008 2.73
212 2 18.549999 8.9299999999999997 2.0899999999999999
213 2 18.110001 10.369999 2.21
214 1 20.91 11.460000000000001 9.5299999999999994
215 2 21.719999000000001 11.51 10.030001
216 2 21.09 10.83 8.8300000000000001
217 1 5.5999999999999996 1.23 1.7
218 2 4.7999999999999998 0.70999999999999996 1.5900000000000001
219 2 5.7699999999999996 1.5900000000000001 0.82999999999999996
220 1 8.1199999999999992 2.9500000000000002 8.5099999999999998
221 2 7.9800000000000004 3.75 9.0299999999999994
222 2 8.4199999999999999 3.27 7.6599999999999993
223 1 8.0800000000000001 8.3200000000000003 1.6699999999999999
224 2 8.6500000000000004 7.589999999999999 1.8999999999999999
225 2 8.4500010000000003 8.6699999999999999 0.87
226 1 10.640000000000001 10.119999999999999 8.5299999999999994
227 2 11.219999 9.3900000000000006 8.7599999999999998
228 2 11.02 10.469999999999999 7.7199999999999998
229 1 13.16 1.2 1.6100000000000001
230 2 12.34 0.69999999999999996 1.7
231 2 12.98 2.0299999999999998 2.0499999999999998
232 1 15.620000999999998 3.04 8.5299999999999994
233 2 16.189999 2.2999999999999998 8.7599999999999998
234 2 15.99 3.3900000000000001 7.7199999999999998
235 1 15.620000999999998 8.3200000000000003 1.6699999999999999
236 2 15.989999999999998 8.6699999999999999 0.87
237 2 16.189999 7.589999999999999 1.8999999999999999
238 1 18.200001 10.089999000000001 8.4399999999999995
239 2 18.739999999999998 9.4600000000000009 8.9100000000000001
240 2 18.200001 10.869999999999997 8.9900000000000002
241 1 7.46 4.54 0.76000000000000001
242 2 7.6900000000000004 3.9300000000000002 1.46
243 2 6.9400000000000004 5.2199999999999998 1.1899999999999999
244 1 10.01 6.4100000000000001 7.669999999999999
245 2 10.349999 5.8399999999999999 8.3600010000000005
246 2 9.6199999999999992 5.7999999999999998 7.0399999999999991
247 1 10.030001 11.619999 0.76000000000000001
248 2 9.5 12.300000000000001 1.1899999999999999
249 2 10.26 11.02 1.46
250 1 12.509999999999998 13.43 7.6599999999999993
251 2 12.98 12.83 8.2400000000000002
252 2 13.200001 13.960000000000001 7.2699999999999987
253 1 15 4.54 0.76000000000000001
254 2 15.23 3.9300000000000002 1.46
255 2 14.470000000000001 5.2199999999999998 1.1899999999999999
256 1 17.560001 6.3399999999999999 7.6100000000000003
257 2 17.790001 5.7300000000000004 8.3099989999999995
258 2 17.040001 7.0099999999999998 8.0399999999999991
259 1 17.610001 11.630000000000001 0.83999999999999997
260 2 16.959999 12.280001 1.0800000000000001
261 2 17.120000999999998 11 0.29999999999999999
262 1 20.050001000000002 13.43 7.6599999999999993
263 2 20.510002 12.83 8.2400000000000002
264 2 20.739998 13.960000000000001 7.2699999999999987
265 1 9.6399989999999995 6.1299999999999999 2.6200000000000001
266 2 8.9099999999999984 5.6600000000000001 3.0099999999999998
267 2 10.050000000000001 5.4900000000000002 2.04
268 1 12.209999 7.9299999999999997 9.4700000000000006
269 2 12.619999999999999 7.2899999999999991 8.8900000000000006
270 2 11.469999 7.46 9.8699999999999992
271 1 12.19 13.17 2.54
272 2 12.93 13.24 3.1400000000000001
273 2 11.460000000000001 12.869999 3.0899999999999999
274 1 14.73 14.9 9.4400010000000005
275 2 14.34 15.73 9.1900010000000005
276 2 15.49 15.140000000000001 9.9800000000000004
277 1 17.18 6.1299999999999999 2.6200000000000001
278 2 16.440000999999999 5.6600000000000001 3.0099999999999998
279 2 17.59 5.4900000000000002 2.04
280 1 19.66 7.8900000000000006 9.4600000000000009
281 2 20.079998 7.3799999999999999 8.7699999999999996
282 2 20.360001 8.0500000000000007 10.089999000000001
283 1 19.66 13.179999 2.6099999999999999
284 2 20.079998 12.67 1.9099999999999999
285 2 20.360001 13.34 3.2400000000000002
286 1 22.27 14.9 9.4400010000000005
287 2 23.029999 15.140000000000001 9.9800000000000004
288 2 21.870000999999998 15.73 9.1900010000000005
289 1 5.8399999999999999 6.6799999999999997 1.7300000000000002
290 2 5.4400009999999996 6.6500000000000004 2.6000000000000001
291 2 6.5999999999999996 7.25 1.8300000000000003
292 1 8.3600010000000005 8.5099999999999998 8.6500000000000004
293 2 8.7800010000000004 7.7099999999999991 8.3399999999999999
294 2 9.0600000000000005 9.1699999999999999 8.6500000000000004
295 1 8.4800000000000004 13.780001 1.77
296 2 8.0800000000000001 13.609999999999999 2.6200000000000001
297 2 7.79 14.190001000000001 1.25
298 1 11.009999000000001 15.620000999999998 8.6900010000000005
299 2 11.42 14.889999 8.2200000000000006
300 2 10.27 15.880001 8.1400000000000006
301 1 13.369999999999999 6.6799999999999997 1.7300000000000002
302 2 12.98 6.6500000000000004 2.6000000000000001
303 2 14.130000000000001 7.25 1.8300000000000003
304 1 15.940000000000001 8.4800000000000004 8.5800000000000001
305 2 15.539999999999999 8.4500010000000003 9.4499999999999993
306 2 16.699998999999998 9.0499989999999997 8.6799990000000005
307 1 15.959999 13.73 1.8099999999999998
308 2 15.23 14.190001000000001 1.3799999999999999
309 2 16.699998999999998 14.33 1.7300000000000002
310 1 18.539999000000002 15.620000999999998 8.6900010000000005
311 2 18.950001 14.889999 8.2200000000000006
312 2 17.809999000000001 15.880001 8.1400000000000006
313 1 3.6699999999999999 4.6500000000000004 0.75
314 2 3.3500000000000001 3.8999999999999999 0.25
315 2 4.2000000000000002 4.2699999999999996 1.45
316 1 6.2599999999999998 6.3300000000000001 7.6299999999999999
317 2 6.4900000000000002 6.8499999999999996 6.8600000000000003
318 2 5.7400000000000002 6.9100000000000001 8.1699999999999999
319 1 6.2300000000000004 11.74 0.75
320 2 5.9100000000000001 10.99 0.25
321 2 6.7599999999999998 11.35 1.45
322 1 8.8699999999999992 13.49 7.6100000000000003
323 2 8.2200000000000006 13.900000000000002 8.1799999999999997
324 2 8.3800000000000008 12.81 7.1300000000000008
325 1 11.219999 4.5999999999999996 0.81999999999999995
326 2 11.549999 5.1299999999999999 0.10000000000000001
327 2 10.82 3.8399999999999999 0.40000000000000002
328 1 13.77 6.4500000000000002 7.5999999999999996
329 2 13.450001 5.7000000000000002 7.0999999999999996
330 2 14.299999 6.0700000000000003 8.3000000000000007
331 1 13.780001 11.67 0.69999999999999996
332 2 13.179998999999999 12.200001 1.22
333 2 14.390000000000001 11.289999 1.3300000000000001
334 1 16.360001 13.41 7.6299999999999999
335 2 16.59 13.940001000000001 6.8600000000000003
336 2 15.84 14 8.1699999999999999
337 1 4.4000000000000004 6.3900000000000006 4.1799999999999997
338 2 4.5599999999999996 5.6399999999999997 4.75
339 2 3.5999999999999996 6.1600000000000001 3.71
340 1 6.9000000000000004 8.0800000000000001 11.050000000000001
341 2 6.9000000000000004 8.8200009999999995 11.66
342 2 7.4400000000000004 8.3800000000000008 10.31
343 1 6.9800000000000004 13.389999 4.1799999999999997
344 2 6.8099999999999987 14.02 4.8700000000000001
345 2 6.1699999999999999 13.35 3.6800000000000002
346 1 9.4400010000000005 15.26 11.050000000000001
347 2 10.01 15.299999 10.279999999999999
348 2 9.8200000000000003 14.57 11.599999
349 1 11.960000000000001 6.3100000000000005 4.1799999999999997
350 2 11.780000000000001 6.9399999999999995 4.8700000000000001
351 2 11.139999 6.2599999999999998 3.6800000000000002
352 1 14.5 8.1900010000000005 11.030001
353 2 14.66 7.4400000000000004 11.610001
354 2 13.699999999999999 7.9599999999999991 10.559998999999999
355 1 14.409999999999998 13.459999 4.2000000000000002
356 2 14.789999999999997 12.77 4.7400000000000002
357 2 14.980000000000002 13.5 3.4300000000000002
358 1 17 15.17 11.050000000000001
359 2 17 15.900001 11.66
360 2 17.539999000000002 15.460000000000001 10.31
361 1 7.0800000000000001 7.6099999999999994 5.2300000000000004
362 2 6.4699999999999998 8.2699999999999996 4.9100000000000001
363 2 7.9400010000000005 8.0399999999999991 5.2300000000000004
364 1 9.7100000000000009 9.4499999999999993 12.029999999999999
365 2 9.1399989999999995 10.18 11.799999
366 2 9.3399999999999999 9.0999999999999996 12.84
367 1 9.7100000000000009 14.73 5.1799999999999997
368 2 9.1399989999999995 15.460000000000001 4.9500000000000002
369 2 9.3399999999999999 14.379999 5.9900000000000002
370 1 12.17 16.57 12.09
371 2 12.99 17.059999000000001 12.01
372 2 12.35 15.74 11.66
373 1 14.6 7.6600000000000001 5.1600000000000001
374 2 15.4 8.1799999999999997 5.2599999999999998
375 2 14.429999 7.2999999999999998 6.0300000000000002
376 1 17.139999000000003 9.4900000000000002 12.09
377 2 17.959999 9.9800000000000004 12.01
378 2 17.32 8.6500000000000004 11.66
379 1 17.23 14.759999000000001 5.2699999999999996
380 2 16.690000999999999 15.390000000000001 4.79
381 2 17.219998999999998 13.98 4.71
382 1 19.73 16.540001 12.01
383 2 20.529999 17.059999000000001 12.109999999999999
384 2 19.559999000000001 16.18 12.880000000000001
385 1 22.5 5.2599999999999998 3.9900000000000002
386 2 21.82 4.6399999999999997 3.71
387 2 22.950001 4.8099999999999996 4.7000000000000002
388 1 25.060001 7.0599990000000012 10.84
389 2 25.520000000000003 6.6099999999999994 11.56
390 2 24.389999 6.4400000000000013 10.559998999999999
391 1 25.050001000000002 12.300000000000001 4.0800000000000001
392 2 24.41 11.809998999999999 3.5499999999999998
393 2 25.739998 12.530001 3.4600000000000004
394 1 27.670000000000002 14.06 10.859999999999999
395 2 27.41 14.9 11.24
396 2 26.860001 13.68 10.52
397 1 30.02 5.2200000000000006 4.0800000000000001
398 2 29.389999 4.7300000000000013 3.5499999999999998
399 2 30.710000999999998 5.4500000000000002 3.4600000000000004
400 1 32.560001 6.9700000000000006 10.809998999999999
401 2 32.389999000000003 7.8600000000000003 11.139999
402 2 33.119999 6.5700000000000003 11.48
403 1 32.520000000000003 12.289999999999999 4
404 2 32.979999999999997 11.940001000000001 4.7699999999999996
405 2 33.220001000000003 12.619999999999999 3.4399999999999999
406 1 35.090000000000003 14.09 10.85
407 2 35.540000999999997 13.74 11.619999
408 2 35.779998999999997 14.42 10.290001
409 1 26.639999000000003 8.1300000000000008 6.2000000000000002
410 2 26.189999 7.5600000000000005 6.8200000000000003
411 2 27.320001999999999 8.5600000000000005 6.7300000000000004
412 1 29.25 9.9299990000000005 13.179999
413 2 29.440000999999999 9.2799999999999994 12.51
414 2 28.48 10.390000000000001 12.84
415 1 29.200001 15.219999 6.2000000000000002
416 2 28.75 14.639999 6.8200000000000003
417 2 29.879999000000002 15.640000000000001 6.7300000000000004
418 1 31.800001000000002 17.07 13.129999
419 2 31.25 16.530000999999999 13.69
420 2 31.970000999999996 16.52 12.359999999999999
421 1 34.130001 8.1300000000000008 6.29
422 2 34.389999000000003 7.5499999999999998 5.5800000000000001
423 2 34.939999 8.5600000000000005 6.5700000000000003
424 1 36.82 9.9299990000000005 13.120001
425 2 36.119999 10.390000000000001 12.65
426 2 36.360000999999997 9.2799999999999994 13.65
427 1 36.760002 15.140000000000001 6.2699999999999996
428 2 36.059998 15.679999 5.8899999999999997
429 2 37.389999000000003 15.779999999999999 6.6100000000000003
430 1 39.349997999999999 17.02 13.179999
431 2 38.580002 17.48 12.84
432 2 39.540000999999997 16.360001 12.51
433 1 20.34 3.71 2.8999999999999999
434 2 19.789999000000002 4.1200000000000001 2.23
435 2 20.510002 2.8300000000000001 2.5600000000000001
436 1 22.91 5.5099999999999998 9.75
437 2 23.080002 4.6299999999999999 9.4199999999999999
438 2 22.349997999999999 5.9100000000000001 9.0800000000000001
439 1 22.920000000000002 10.82 2.8399999999999999
440 2 23.110001 10.01 2.3700000000000001
441 2 22.149999999999999 10.620001 3.3700000000000001
442 1 25.469999000000001 12.589999000000001 9.75
443 2 24.920002 13 9.0800000000000001
444 2 25.639999 11.710000000000001 9.4199999999999999
445 1 27.880001000000004 3.71 2.8999999999999999
446 2 27.320001999999999 4.1200000000000001 2.23
447 2 28.050001000000002 2.8300000000000001 2.5600000000000001
448 1 30.360001 5.5099999999999998 9.7000010000000003
449 2 30.629999000000005 4.6699999999999999 9.3200000000000003
450 2 31.170002 5.8899999999999997 10.039999
451 1 30.420000000000002 10.75 2.7799999999999998
452 2 31.049999 11.24 3.2999999999999998
453 2 29.73 10.52 3.3900000000000001
454 1 32.970001000000003 12.509999999999998 9.7200000000000006
455 2 32.520000000000003 12.960000000000001 9
456 2 33.650002000000001 13.120001000000002 10
457 1 16.09 0.75 0.58999999999999997
458 2 16.540001 1.3999999999999999 0.059999999999999991
459 2 16.790001 0.28999999999999998 1.0600000000000001
460 1 18.700000999999997 2.5 7.4299999999999997
461 2 18.530000999999999 3.04 8.1999999999999993
462 2 19.25 3.04 6.8600000000000003
463 1 18.710000999999998 7.910000000000001 0.57999999999999996
464 2 19.41 7.3700000000000001 0.95999999999999985
465 2 18.079999999999998 7.2800000000000011 0.23999999999999996
466 1 21.289999000000002 9.6399989999999995 7.5
467 2 21.75 10.210000000000001 6.8899999999999997
468 2 20.620000999999998 9.2100000000000009 6.9800000000000004
469 1 23.619999 0.75 0.58999999999999997
470 2 24.079999999999998 1.3999999999999999 0.059999999999999991
471 2 24.32 0.28999999999999998 1.0600000000000001
472 1 26.189999 2.5499999999999998 7.4399999999999995
473 2 26.639999 3.2000000000000002 6.910000000000001
474 2 26.889999 2.0899999999999999 7.9100000000000001
475 1 26.23 7.7799999999999994 0.56999999999999995
476 2 26.059999000000001 8.3300000000000001 1.3400000000000001
477 2 26.779999 8.3300000000000001 0.01
478 1 28.75 9.6300000000000008 7.4399999999999995
479 2 29.209999 10.290001 6.910000000000001
480 2 29.449998999999998 9.1699999999999999 7.9100000000000001
481 1 20.27 4.3399999999999999 6.0999999999999996
482 2 20.799999 3.6699999999999999 5.6699999999999999
483 2 20.039999000000002 4.9500000000000002 5.3899999999999997
484 1 22.860001 6.1299999999999999 12.82
485 2 23.18 6.8099999999999996 13.42
486 2 22.329999999999998 5.5599999999999996 13.369999999999999
487 1 22.790001 11.43 6.0199999999999996
488 2 23.440000999999995 10.77 5.7699999999999996
489 2 23.280000999999999 12.059998999999999 6.5499999999999998
490 1 25.420000000000002 13.289999999999999 12.880000000000001
491 2 26.02 12.65 12.5
492 2 24.809999000000005 12.77 13.400001
493 1 27.82 4.2800000000000002 6.04
494 2 27.480000000000004 4.8399999999999999 5.3399999999999999
495 2 28.210000999999998 4.8799999999999999 6.6699999999999999
496 1 30.32 6.1399999999999997 12.869999
497 2 30.969999000000001 5.4800000000000004 12.619999999999999
498 2 30.810001 6.7699999999999996 13.400001
499 1 30.369999 11.43 6.0999999999999996
500 2 30.139999 12.039999999999999 5.3899999999999997
501 2 30.899999999999999 10.75 5.6699999999999999
502 1 32.959999000000003 13.219999999999999 12.82
503 2 32.43 12.640000000000001 13.369999999999999
504 2 33.279998999999997 13.890000000000001 13.42
505 1 18.049999 2.8300000000000001 4.25
506 2 18.75 3.23 3.7299999999999995
507 2 18.450001 2.0499999999999998 4.6399999999999997
508 1 20.66 4.5499999999999998 11.09
509 2 20.25 5.1900000000000004 11.67
510 2 21.389999 5.0199999999999996 10.690001000000001
511 1 20.739998 9.8800000000000008 4.2400000000000002
512 2 20.32 10.390000000000001 4.9400000000000004
513 2 20.039999000000002 9.7100000000000009 3.6099999999999999
514 1 23.220001000000003 11.640000000000001 11.09
515 2 23.959999 12.099999999999998 10.690001000000001
516 2 22.809998999999998 12.280001 11.67
517 1 25.650002000000001 2.7999999999999998 4.3099999999999996
518 2 24.899999999999999 2.73 3.71
519 2 26.370000999999998 3.0999999999999996 3.7599999999999998
520 1 28.210000999999998 4.5999999999999996 11.160000999999999
521 2 27.469999000000001 4.5300000000000002 10.559998999999999
522 2 28.929998000000001 4.9000000000000004 10.620001
523 1 28.23 9.9600000000000009 4.2599999999999998
524 2 28.629999000000002 9.1199999999999992 4.5099999999999998
525 2 27.469999000000001 9.7100000000000009 3.7299999999999995
526 1 30.769998999999999 11.68 11.160000999999999
527 2 31.5 11.99 10.620001
528 2 30.030000999999999 11.610001 10.559998999999999
529 1 21.879999000000002 2.2400000000000002 5.04
530 2 22.600000000000001 1.78 5.4699999999999998
531 2 21.140001000000002 1.6399999999999999 5.1200000000000001
532 1 24.440000999999999 3.9199999999999999 11.950001
533 2 24.899999999999999 4.1500000000000004 11.139999
534 2 23.950001 4.71 12.18
535 1 24.440000999999999 9.3200000000000003 5.04
536 2 23.699998999999998 8.7199989999999996 5.1200000000000001
537 2 25.170000000000002 8.8699999999999992 5.4699999999999998
538 1 27.030000999999999 11.09 11.98
539 2 27.420002 11.119999999999999 11.1
540 2 26.269999999999996 10.520000000000001 11.870001
541 1 29.389999 2.1499999999999999 5.0099999999999998
542 2 30.130001 1.8899999999999999 5.5700000000000003
543 2 28.98 2.8799999999999999 5.4800000000000004
544 1 31.98 4.04 11.890000000000001
545 2 31.240002 3.4399999999999999 11.98
546 2 32.700001 3.5800000000000001 12.32
547 1 31.98 9.3200000000000003 5.04
548 2 31.240002 8.7199989999999996 5.1200000000000001
549 2 32.700001 8.8699999999999992 5.4699999999999998
550 1 34.599997999999999 11.050000000000001 11.900001
551 2 33.900002000000001 10.400000000000002 11.91
552 2 34.189999 11.859999999999999 12.220000000000001
553 1 24.040001 4.3600000000000003 6.0800000000000001
554 2 24.560001 3.7699999999999996 5.54
555 2 23.810001 3.8300000000000001 6.8499999999999996
556 1 26.559999000000001 6.0800000000000001 12.949999999999999
557 2 27.040001 6.75 13.43
558 2 27.209999 5.6699999999999999 12.380000000000001
559 1 26.619999 11.390000000000001 6.1600000000000001
560 2 27.219999000000001 10.859999999999999 5.6299999999999999
561 2 26.010000000000002 11.76 5.5199999999999996
562 1 29.189999 13.190001000000001 13.01
563 2 28.579999999999998 13.559998999999999 12.369999999999999
564 2 29.779999 12.65 12.49
565 1 31.600000000000001 4.2300000000000004 6.0999999999999996
566 2 31.070001999999999 4.6100000000000003 5.4100000000000001
567 2 31.919998 4.9800000000000004 6.5999999999999996
568 1 34.090000000000003 6.0800000000000001 12.949999999999999
569 2 34.739998 5.6699999999999999 12.380000000000001
570 2 34.579998000000003 6.75 13.43
571 1 34.139999000000003 11.440000999999999 6.0800000000000001
572 2 34.659999999999997 10.85 5.54
573 2 33.909999999999997 10.92 6.8499999999999996
574 1 36.659999999999997 13.16 12.949999999999999
575 2 37.139999000000003 13.839999000000001 13.43
576 2 37.309998000000007 12.76 12.380000000000001
577 1 23.399999999999999 2.5999999999999996 2.6600000000000001
578 2 22.860001 2.2999999999999998 3.3900000000000001
579 2 23.399999999999999 1.8700000000000001 2.0499999999999998
580 1 25.940000999999995 4.3399999999999999 9.5800000000000001
581 2 26.09 3.6400000000000001 8.9499999999999993
582 2 25.639999 5.0899999999999999 9.0600000000000005
583 1 25.989999999999998 9.5899999999999999 2.6499999999999999
584 2 25.420000000000002 9.5599989999999995 3.4199999999999999
585 2 25.610001 10.290001 2.1099999999999999
586 1 28.509999999999998 11.43 9.5800000000000001
587 2 28.210000999999998 12.17 9.0600000000000005
588 2 28.649999999999999 10.73 8.9499999999999993
589 1 30.889999 2.5499999999999998 2.6000000000000001
590 2 30.280000999999999 2.4100000000000001 3.3300000000000001
591 2 31.739999999999998 2.6600000000000001 3.0299999999999998
592 1 33.459999000000003 4.3499999999999996 9.4600000000000009
593 2 32.840000000000003 4.21 10.18
594 2 34.310001 4.46 9.8800000000000008
595 1 33.5 9.6899999999999995 2.6600000000000001
596 2 32.95999900000001 9.3900000000000006 3.3900000000000001