LAMMPS data file via write_data, version 15 Apr 2020, timestep = 500000

3072 atoms
2 atom types

1.4291504775606789e-01 2.9997278952241249e+01 xlo xhi
1.7243436329366801e-01 2.8168031636702445e+01 ylo yhi
1.4438092850676298e-01 2.7267064071488452e+01 zlo zhi
1.0200964736449681e+01 1.0203472423849709e+01 7.0805279405340356e+00 xy xz yz

Masses

1 16
2 2

Atoms # atomic

1 1 7.3084296476071877e+00 5.2786626548054860e+00 3.9552162749103883e+00 0 0 0
2 2 6.5304359197965258e+00 4.7427937586769291e+00 3.6917449729432974e+00 0 0 0
3 2 6.8771089300528772e+00 6.0572370649693070e+00 4.3294711624621547e+00 0 0 0
4 1 9.9031572861105488e+00 7.0379831708223701e+00 1.0653335362900844e+01 0 0 0
5 2 1.0415194995013028e+01 6.4681690176986351e+00 1.1306427035514348e+01 0 0 0
6 2 9.7688423912577047e+00 7.8288358482645641e+00 1.1260772535731052e+01 0 0 0
7 1 1.0059819536632082e+01 1.2189710249127373e+01 4.0785555194226522e+00 0 0 0
8 2 1.0592653793309687e+01 1.1830140117378489e+01 4.8215352041668469e+00 0 0 0
9 2 9.8176142342887918e+00 1.3066418797051089e+01 4.3793121179774124e+00 0 0 0
10 1 1.2616941156280538e+01 1.4136604431749198e+01 1.0926659493726678e+01 0 0 0
11 2 1.3443493223831375e+01 1.4405382567105363e+01 1.0446935758023958e+01 0 0 0
12 2 1.2067936254352448e+01 1.3659443548786928e+01 1.0301819905755249e+01 0 0 0
13 1 1.4972988290496337e+01 5.0462046958367646e+00 4.2069926768807946e+00 0 0 0
14 2 1.5551529864337546e+01 4.6786512567760008e+00 4.9730919831054781e+00 0 0 0
15 2 1.4865035350639973e+01 5.9500611308913092e+00 4.5833469970776584e+00 0 0 0
16 1 1.7274194980332453e+01 6.9559169211220127e+00 1.1105923566550668e+01 0 0 0
17 2 1.7797499852142231e+01 6.6759155427865355e+00 1.1882854243287145e+01 0 0 0
18 2 1.8035303163098177e+01 7.0845623353120573e+00 1.0495370233606280e+01 0 0 0
19 1 1.7832990334578184e+01 1.2429595124643736e+01 4.2435037368274235e+00 0 0 0
20 2 1.8543958684083790e+01 1.2630650125093178e+01 3.6009082990058587e+00 0 0 0
21 2 1.8314941104393696e+01 1.1881630175782242e+01 4.9754641930391283e+00 0 0 0
22 1 2.0058497255299137e+01 1.3958115307849576e+01 1.0873715578897500e+01 0 0 0
23 2 2.0884344002513537e+01 1.4082243227845581e+01 1.0345808643919865e+01 0 0 0
24 2 1.9839571350962835e+01 1.4755862745683610e+01 1.1395187775077227e+01 0 0 0
25 1 1.1720899408838708e+01 8.3207988616471091e+00 6.3722405367568014e+00 0 0 0
26 2 1.0957299939553014e+01 8.8991910651085107e+00 6.2689788501659489e+00 0 0 0
27 2 1.1329846151897987e+01 7.5253170737087007e+00 6.7995798530544542e+00 0 0 0
287 2 2.2967400000973626e+01 1.4913836850006152e+01 1.0295814147839556e+01 0 0 0
29 2 1.4623468147466655e+01 9.2731549212998736e+00 1.2366597453556592e+01 0 0 0
30 2 1.3609204589608183e+01 1.0332666996450133e+01 1.2599840605197819e+01 0 0 0
31 1 1.4299383680985700e+01 1.5123870638121527e+01 6.4774850502180206e+00 0 0 0
32 2 1.4482687834762663e+01 1.4530752685352153e+01 5.7411466125108044e+00 0 0 0
33 2 1.3702735142201957e+01 1.5821356668362368e+01 6.0316923877579578e+00 0 0 0
74 2 1.5682267865911843e+00 1.6890974095328306e+00 1.8431208237774785e-01 0 0 0
35 2 1.6076703984772337e+01 1.7550082337914553e+01 1.2835997837686872e+01 0 0 0
327 2 1.0831658421535083e+01 3.7573056283928525e+00 6.2508688999281792e-01 0 0 0
37 1 1.9064889714040689e+01 8.0107529723434254e+00 6.4758891441750022e+00 0 0 0
38 2 1.8374366442411194e+01 8.5708354986401094e+00 6.0766244518185344e+00 0 0 0
39 2 1.8591387202000050e+01 7.5548738648324889e+00 7.2034852873141233e+00 0 0 0
805 1 2.4060187963576460e+01 2.2189276373120890e+01 6.3097682611578465e+00 0 0 0
1152 2 2.4068155303711144e+01 3.1072915744620069e+01 1.2150957901759927e+01 0 0 0
42 2 2.0891160566991644e+01 1.0383099760561995e+01 1.2863119503489310e+01 0 0 0
1082 2 8.1407332311517102e+00 1.8014402110810462e+01 2.2557835802830101e-01 0 0 0
44 2 2.0874407374310231e+01 1.5718055141551300e+01 6.3865993685213116e+00 0 0 0
1151 2 2.4389089945177254e+01 3.0042228114348021e+01 1.3266237776078553e+01 0 0 0
1106 2 8.5103732411237392e+00 2.0378635884652422e+01 3.7161117143938878e+00 0 0 0
47 2 2.3399843217865282e+01 1.7434588338997564e+01 1.3030551514100495e+01 0 0 0
1584 2 1.8781791687183812e+01 1.2686079888972632e+01 2.6598660351972719e-01 0 0 1
49 1 5.3367273737141439e+00 3.9051180591565013e+00 3.0779514199881217e+00 0 0 0
50 2 5.6103965262243971e+00 3.0643093414141092e+00 2.6603472292783268e+00 0 0 0
51 2 4.5336391712839204e+00 3.7259996509163305e+00 3.6498814548606222e+00 0 0 0
52 1 7.8177741059229184e+00 5.6010399749200293e+00 9.7614442157631007e+00 0 0 0
53 2 7.4905170883124601e+00 6.1181663947713769e+00 9.0164368189767341e+00 0 0 0
54 2 8.5818842316513848e+00 6.1612500467897302e+00 1.0023602106356664e+01 0 0 0
55 1 7.8747753834515342e+00 1.0643689252751194e+01 3.0319969507100222e+00 0 0 0
56 2 8.2403853038935164e+00 9.7589462835263365e+00 2.8228493235669569e+00 0 0 0
57 2 8.6650928445357671e+00 1.1139577410497315e+01 3.5012199724177635e+00 0 0 0
58 1 1.0576401478302719e+01 1.2865939469109026e+01 9.6779374069439452e+00 0 0 0
59 2 9.9135853497407034e+00 1.3076307516502489e+01 8.9348212596880661e+00 0 0 0
60 2 1.1139535880302349e+01 1.2164919604144538e+01 9.3009848297650279e+00 0 0 0
61 1 1.2849740733225023e+01 3.7258418763863017e+00 3.1730320845261359e+00 0 0 0
62 2 1.3518706189589926e+01 4.3468337282261622e+00 3.6229109841848532e+00 0 0 0
63 2 1.2308433549987898e+01 4.2156409050327532e+00 2.5078094645630942e+00 0 0 0
64 1 1.5064642016674012e+01 5.4254566768591079e+00 1.0030535483161996e+01 0 0 0
65 2 1.5789142094280157e+01 5.8399211159857174e+00 1.0561080189269640e+01 0 0 0
66 2 1.5418691329954108e+01 4.5471391206951211e+00 9.6023985082204533e+00 0 0 0
67 1 1.5777038477910292e+01 1.1012209977724906e+01 3.2178072817285366e+00 0 0 0
68 2 1.6546941436230668e+01 1.1555528418430034e+01 3.5923152391989990e+00 0 0 0
69 2 1.6179313012836410e+01 1.0251753736158104e+01 2.7011985241471130e+00 0 0 0
70 1 1.7972544462351777e+01 1.2420888374206548e+01 9.8431787544276332e+00 0 0 0
71 2 1.7648933144446126e+01 1.2970615870276681e+01 9.0761717615292419e+00 0 0 0
72 2 1.8681074230542791e+01 1.2950083050806203e+01 1.0261574587719627e+01 0 0 0
1095 2 1.6121851353771063e+01 1.7525906614043247e+01 3.8612553214595469e-01 0 0 0
1784 2 1.4771676368524085e+01 1.4385102238273753e+01 1.3655519848379306e+01 0 0 0
1145 2 2.1694419177945129e+01 2.4095209538078297e+01 1.1855496419905961e+01 0 0 0
185 2 1.9222418802192756e+01 7.2288273775199112e+00 1.3619901954818058e+01 0 0 0
77 2 4.4059543586847374e+00 2.3093344927308954e+00 7.7893947198546050e+00 0 0 0
983 2 2.6081628693434766e+01 2.4711099781975587e+01 9.0882278574891444e+00 0 0 0
79 1 3.6927773099672137e+00 8.2180780022029296e+00 5.5295904984042976e-01 0 0 0
1139 2 1.7018492286557958e+01 3.0382929682261935e+01 1.3248485320218663e+01 0 0 0
81 2 4.4729940474030068e+00 7.6368827682166902e+00 6.0459023407343238e-01 0 0 0
82 1 6.2071507235847445e+00 9.7134036898093505e+00 7.5585301767356698e+00 0 0 0
1150 1 2.4752587455383093e+01 3.0458289118305792e+01 1.2472793619604834e+01 0 0 0
84 2 7.0540177793012617e+00 9.2557216276959888e+00 7.8205188175766969e+00 0 0 0
85 1 8.6725010460881116e+00 1.1140510568211757e+00 8.0643246363271237e-01 0 0 0
953 2 2.4647354716580956e+01 2.0882355677230450e+01 1.3471191939296661e+01 0 0 0
87 2 8.4981304541360494e+00 1.6331028158210295e+00 1.6581838993027271e+00 0 0 0
88 1 1.0973538077988513e+01 2.6929013042695411e+00 7.7116498665203688e+00 0 0 0
89 2 2.1896375114984075e+01 3.0217896137270987e+01 8.1424648653753664e+00 0 -1 0
90 2 1.1447359637474358e+01 3.1411730390210351e+00 6.9685722087504365e+00 0 0 0
91 1 1.1353176879853978e+01 7.9649578175062565e+00 9.2722897998183673e-01 0 0 0
1109 2 1.2199662234543071e+01 2.3066917780778134e+01 1.1277877044524688e+01 0 0 0
93 2 1.2105290864718107e+01 7.4118860311287715e+00 1.2878935597235657e+00 0 0 0
94 1 1.3851661649151257e+01 9.6097988745546257e+00 7.6362279377621842e+00 0 0 0
95 2 1.4524618982164771e+01 9.0587046425670117e+00 8.0395414912669843e+00 0 0 0
96 2 1.3117674882589879e+01 9.0836707784605633e+00 7.2099889396984649e+00 0 0 0
97 1 5.3952869921977982e+00 4.5649537880636366e+00 6.1718446481087410e+00 0 0 0
98 2 5.8497799431784587e+00 5.2320862028337327e+00 6.7686617356580374e+00 0 0 0
99 2 4.6745103936214054e+00 4.1830523542319682e+00 6.6660894511410511e+00 0 0 0
100 1 7.9574336245177690e+00 6.2387196416174913e+00 1.3017950781400653e+01 0 0 0
101 2 7.7727919447185867e+00 6.6968392741154403e+00 1.2119376998279932e+01 0 0 0
102 2 8.6713615653164737e+00 5.5906178824671535e+00 1.2917319246471195e+01 0 0 0
103 1 7.9673564257139633e+00 1.1443178363396184e+01 6.3053680718580942e+00 0 0 0
104 2 7.5254835075947355e+00 1.1977936546988689e+01 5.5475836802442551e+00 0 0 0
105 2 7.2518440320626532e+00 1.0929573732944405e+01 6.6782650375873267e+00 0 0 0
106 1 1.0370149250459344e+01 1.2895769814866696e+01 1.2733607471767765e+01 0 0 0
890 2 7.8603005753670656e+00 1.7553943345342290e+01 4.7937590137117470e+00 0 0 0
108 2 1.1113925816088495e+01 1.2302257690657999e+01 1.2467879371513547e+01 0 0 0
109 1 1.2867643420366855e+01 4.5947329495740146e+00 6.3708110004861576e+00 0 0 0
110 2 1.3384386386939603e+01 3.9598305902953825e+00 5.8896106211240111e+00 0 0 0
111 2 1.2666592821688797e+01 5.3711013854505971e+00 5.7775783983938611e+00 0 0 0
112 1 1.5165382597607545e+01 6.1942503826227444e+00 1.2753201932660028e+01 0 0 0
809 2 2.6950609797910410e+01 2.3475565902720273e+01 1.2433639779260242e+01 0 0 0
1134 2 1.4643248556295868e+01 2.3023011328488124e+01 1.2744008749192476e+01 0 0 0
115 1 1.5681375202937501e+01 1.1283451253360948e+01 6.1763121885014316e+00 0 0 0
116 2 1.4972084174996942e+01 1.0873931819448343e+01 6.6488222147161649e+00 0 0 0
117 2 1.6065642272316040e+01 1.1936457255579278e+01 6.7653327292582244e+00 0 0 0
118 1 1.7912323059293485e+01 1.3134787403315208e+01 1.2952108453785414e+01 0 0 0
1029 2 2.3404973532420833e+01 2.6391126149981442e+01 7.0205177635141547e-01 0 0 0
120 2 1.7419882431310576e+01 1.3849309823033719e+01 1.2492881539457535e+01 0 0 0
121 1 3.0646265034733084e+00 3.1566027324560730e+00 4.5400365889822094e+00 0 0 0
1149 2 2.2410230534431882e+01 2.8162420032522398e+01 5.1588654476956268e+00 0 0 0
123 2 3.4691926904152899e+00 2.3434410927093481e+00 4.9013339313682440e+00 0 0 0
124 1 5.8286974148920141e+00 4.7458164453740856e+00 1.1078116915238933e+01 0 0 0
125 2 6.5407459034366351e+00 5.1119717602423478e+00 1.0495637628498747e+01 0 0 0
126 2 6.2106956132627076e+00 3.9263832007545578e+00 1.1447878488466781e+01 0 0 0
127 1 5.5062901581082846e+00 1.0117631830279903e+01 4.4054748800736405e+00 0 0 0
1113 2 1.1930896530268868e+01 2.8380106588725596e+01 5.0281462827662748e+00 0 0 0
129 2 6.1628879844823956e+00 1.0695777966184059e+01 3.9999325520404394e+00 0 0 0
130 1 8.6390458452562875e+00 1.1315070301739981e+01 1.1078060074354843e+01 0 0 0
1028 2 2.2371727848744897e+01 2.5240718402975045e+01 4.9743602884596017e-01 0 0 0
132 2 9.4038539372758869e+00 1.1717401928341815e+01 1.0595435911650021e+01 0 0 0
133 1 1.0800779253389001e+01 2.9432481268326516e+00 4.6589299967431845e+00 0 0 0
134 2 1.1242423465496939e+01 2.0895802418391396e+00 4.9040520533975593e+00 0 0 0
135 2 1.1612527745234248e+01 3.3453062617866647e+00 4.2890955390342267e+00 0 0 0
136 1 1.3045225838006328e+01 4.4946897073942651e+00 1.1280563360007374e+01 0 0 0
137 2 1.3909102653133255e+01 4.8398704076119525e+00 1.0853105492266124e+01 0 0 0
138 2 1.2644922650547938e+01 5.2389391404744075e+00 1.1744257965937457e+01 0 0 0
139 1 1.3661204269394553e+01 9.8403109777962126e+00 4.4768332554316954e+00 0 0 0
140 2 1.4306852876204079e+01 1.0388014064771625e+01 3.9746009846393209e+00 0 0 0
141 2 1.4226641030232289e+01 9.1091061347638131e+00 4.7903859113781477e+00 0 0 0
142 1 1.5833895689390410e+01 1.1437140394114026e+01 1.1078019425991359e+01 0 0 0
143 2 1.6650871872671090e+01 1.1943119221512559e+01 1.0753710237067059e+01 0 0 0
144 2 1.6081895715249612e+01 1.0678332289747075e+01 1.1629020453767192e+01 0 0 0
145 1 6.7969724619798102e+00 2.1491894499703403e+00 5.1724729104280209e+00 0 0 0
146 2 7.5560995340144519e+00 1.7416009937553263e+00 5.7455984437799339e+00 0 0 0
147 2 6.4825655136843814e+00 2.8670714730911380e+00 5.7937626676758391e+00 0 0 0
148 1 9.5990111623442047e+00 4.0422242400303672e+00 1.2359880950022154e+01 0 0 0
149 2 9.7325213533647261e+00 3.9236883324070888e+00 1.1367321043667362e+01 0 0 0
150 2 1.0493913749217944e+01 3.7552048272436993e+00 1.2747234056056858e+01 0 0 0
151 1 9.2659142760200393e+00 9.3126489749389130e+00 5.5805940339800202e+00 0 0 0
152 2 8.8773089199762136e+00 1.0183563455632555e+01 5.8495365915484623e+00 0 0 0
153 2 9.6796781694281524e+00 9.5485052859061916e+00 4.7840195759106843e+00 0 0 0
154 1 1.2062180588813543e+01 1.0628526098714534e+01 1.1982337006195058e+01 0 0 0
155 2 1.1558270677302218e+01 9.7958757937350303e+00 1.2103226415015962e+01 0 0 0
156 2 1.2194462801525754e+01 1.0712809539575069e+01 1.0996647414868685e+01 0 0 0
157 1 1.4206115578686132e+01 2.3442367251362501e+00 5.3885658953517774e+00 0 0 0
158 2 1.5018426833908242e+01 1.9416654430992821e+00 5.7494375228201857e+00 0 0 0
159 2 1.4444001734374707e+01 2.3484459928116155e+00 4.3978217619076050e+00 0 0 0
160 1 1.6906607151568871e+01 4.0434015687180676e+00 1.2023310134103756e+01 0 0 0
161 2 1.6487131174765977e+01 4.8410297535222551e+00 1.2405458409311672e+01 0 0 0
162 2 2.6491300826270667e+01 3.1294183366637267e+01 1.2131102336643789e+01 0 -1 0
163 1 1.7128540986969959e+01 9.2859336652562057e+00 5.1770147568904195e+00 0 0 0
164 2 1.6591663083041254e+01 9.9994620067099671e+00 5.4407533508004144e+00 0 0 0
165 2 1.7265092775553256e+01 9.2749456875402903e+00 4.2292891105643085e+00 0 0 0
166 1 1.9279210391092789e+01 1.0890923068348730e+01 1.1999057809880917e+01 0 0 0
167 2 1.9028934650009418e+01 1.1781722699320133e+01 1.2274486101238629e+01 0 0 0
168 2 1.9842253100551552e+01 1.1110469848058237e+01 1.1180151164277044e+01 0 0 0
169 1 9.1711206912346110e+00 4.7694795308750635e+00 5.9386182325796648e+00 0 0 0
170 2 9.7503581707912410e+00 4.0581994248584277e+00 5.5849511155220402e+00 0 0 0
171 2 8.4781074020712470e+00 4.8262564479090697e+00 5.2716161898093787e+00 0 0 0
172 1 1.1472497005198358e+01 6.3377211153051256e+00 1.2951230993077898e+01 0 0 0
173 2 1.1939294360918817e+01 7.0737516781006331e+00 1.3445634117976290e+01 0 0 0
842 2 5.5472391621628159e+00 1.4331513723462562e+01 2.4613592440401372e-01 0 0 0
175 1 1.1819274925914865e+01 1.1345825696450254e+01 5.9219113657812308e+00 0 0 0
176 2 1.2514448129624459e+01 1.0736806662607275e+01 5.5944825026939027e+00 0 0 0
177 2 1.2350185296271535e+01 1.2061517369358445e+01 6.3299705284654300e+00 0 0 0
178 1 1.4483390326893337e+01 1.3036935025081304e+01 1.2640841169281414e+01 0 0 0
179 2 1.3810057230525898e+01 1.3386704545568232e+01 1.2059854979553187e+01 0 0 0
180 2 1.5093753105687481e+01 1.2483319787176377e+01 1.2070607768645983e+01 0 0 0
181 1 1.6378795121670109e+01 4.2993416103142987e+00 6.2771215028620775e+00 0 0 0
182 2 1.7027648098058172e+01 3.6885108035426599e+00 5.8811218679286883e+00 0 0 0
183 2 1.6872246604870412e+01 5.0834291149884088e+00 6.5804287776102814e+00 0 0 0
184 1 1.9006020958891057e+01 6.4498337279373317e+00 1.3008816890845774e+01 0 0 0
80 2 2.9813257678433285e+00 7.6798097719337930e+00 1.5224100237896904e-01 0 0 0
846 2 8.6954254732230716e+00 1.7177619730832159e+01 8.2861705193025141e+00 0 0 0
187 1 1.8818249959922639e+01 1.1383568001299679e+01 6.4013935629563594e+00 0 0 0
188 2 1.8284716331678709e+01 1.0769493103354964e+01 6.9325588636167979e+00 0 0 0
189 2 1.9160071525607684e+01 1.2047663209384886e+01 7.0430110413336591e+00 0 0 0
190 1 2.1601083130783778e+01 1.3239958235259518e+01 1.3108059261495088e+01 0 0 0
1577 2 1.6301043643033879e+01 5.6536361799428745e+00 2.9472318958807864e-01 0 0 1
192 2 2.0917662761060974e+01 1.3517412851391580e+01 1.2487624649761635e+01 0 0 0
193 1 8.6298648464240468e+00 2.7581197895838394e+00 2.9479428265682128e+00 0 0 0
194 2 7.8637515164557881e+00 2.6889300033466128e+00 3.5034805713071364e+00 0 0 0
195 2 9.4804079812048521e+00 2.7320897214765925e+00 3.4172664870992171e+00 0 0 0
196 1 1.0792585949786252e+01 4.5034980009114571e+00 9.9929923116475869e+00 0 0 0
197 2 1.0812563111572089e+01 4.0397723524098614e+00 9.1465946535455451e+00 0 0 0
198 2 1.1738114459119654e+01 4.3605901513449323e+00 1.0340741494738975e+01 0 0 0
199 1 1.1137124122338125e+01 9.8026277549779319e+00 3.0311155283055493e+00 0 0 0
200 2 1.1123057215672176e+01 9.1158598519827905e+00 2.3652851063462585e+00 0 0 0
201 2 1.2007125326613176e+01 9.8947168158539540e+00 3.4339901012146892e+00 0 0 0
202 1 1.3464541569289857e+01 1.1328438354629233e+01 9.6157941562301197e+00 0 0 0
203 2 1.4247167069848226e+01 1.1358030995334893e+01 1.0167918518456935e+01 0 0 0
204 2 1.3566767233359966e+01 1.0484728251084444e+01 9.0917632298493256e+00 0 0 0
205 1 1.5753617753857563e+01 2.5355661053618861e+00 2.9224034254305558e+00 0 0 0
810 2 2.5857948964486781e+01 2.4475115193938578e+01 1.2901783550416386e+01 0 0 0
1099 1 1.9082242134948373e+01 2.5769761733056523e+01 8.0157340532431431e-01 0 0 0
208 1 1.8326860311635784e+01 4.6198514142886289e+00 9.8520752948086940e+00 0 0 0
209 2 1.7584912877587954e+01 4.5133717656928294e+00 1.0581615795621444e+01 0 0 0
206 2 1.6653903321366471e+01 2.6455237517786645e+00 3.2220205930257961e+00 0 0 0
211 1 1.8741560452951468e+01 9.5166753214946809e+00 2.8828702203262089e+00 0 0 0
1611 2 6.7645412468330122e+00 5.0669252751066871e+00 1.3533377391234662e+01 0 0 0
213 2 1.8511162796159901e+01 1.0362604427701640e+01 2.4440069476537825e+00 0 0 0
214 1 2.1042185789447068e+01 1.1589114923682489e+01 9.7072914273219837e+00 0 0 0
326 2 1.1708067640882311e+01 4.9466034982011502e+00 2.2616480947983575e-01 0 0 0
1023 2 2.0641625200285823e+01 1.9396774009481497e+01 3.2856333250119218e-01 0 0 0
217 1 5.8285021249992743e+00 1.4546874989250378e+00 2.0222100463098696e+00 0 0 0
218 2 4.9397204811575559e+00 1.0438374653977234e+00 1.8475270132551531e+00 0 0 0
219 2 6.1546792048512868e+00 1.6297928052411312e+00 1.1535379370728562e+00 0 0 0
220 1 8.4258947044270425e+00 3.3892541311865871e+00 8.3171197976805331e+00 0 0 0
221 2 8.2299259363335597e+00 4.0891651807940743e+00 8.9328225203415332e+00 0 0 0
222 2 8.6582501762125634e+00 3.7856063676252187e+00 7.4587738906100034e+00 0 0 0
223 1 8.2382114792558205e+00 8.3169045057776376e+00 1.7809633406146523e+00 0 0 0
224 2 8.9534503712992617e+00 7.6992967644243828e+00 1.9937838525872178e+00 0 0 0
225 2 8.4364767203039595e+00 8.7005276891232910e+00 9.0077916359108934e-01 0 0 0
226 1 1.0879870825106353e+01 1.0152865082390104e+01 8.6644198131057255e+00 0 0 0
227 2 1.1419175371925990e+01 9.2954870565041592e+00 8.7660097908337704e+00 0 0 0
228 2 1.1360263816924107e+01 1.0628706726967158e+01 7.9449256383952260e+00 0 0 0
229 1 1.3354897953711014e+01 1.5170915414662323e+00 1.5966537440379693e+00 0 0 0
230 2 1.2509598165210212e+01 9.7075025321093866e-01 1.7113646371379425e+00 0 0 0
231 2 1.3326698024276709e+01 2.3637664678007084e+00 2.0629749148048901e+00 0 0 0
232 1 1.5533970507821651e+01 3.1781871290611288e+00 8.8061013545127604e+00 0 0 0
233 2 1.6201652297188645e+01 2.5098437844875834e+00 8.9820273687397094e+00 0 0 0
234 2 1.5801157932497764e+01 3.5594684032473758e+00 7.8997299413708246e+00 0 0 0
235 1 1.5997012199543761e+01 8.5622732232223040e+00 1.9556048607573915e+00 0 0 0
236 2 1.6279822794818777e+01 8.8829721595491833e+00 1.1482025964972584e+00 0 0 0
237 2 1.6589537277785126e+01 7.8449777485088532e+00 2.2690241939427622e+00 0 0 0
238 1 1.7890905312719269e+01 9.9611192183187676e+00 8.8166911637484002e+00 0 0 0
239 2 1.8580209089157165e+01 9.3613249387441915e+00 9.1779441093624836e+00 0 0 0
240 2 1.7941111659580720e+01 1.0728477826253798e+01 9.3335673636352325e+00 0 0 0
241 1 7.6676948846704711e+00 4.6384003617656964e+00 1.0792052164514065e+00 0 0 0
242 2 7.8916511267679041e+00 4.1000610410848246e+00 1.8394334097591214e+00 0 0 0
243 2 7.0368419851037931e+00 5.2316396330171857e+00 1.5202843935524988e+00 0 0 0
244 1 9.9596960127285659e+00 6.5731984472225644e+00 7.7078906451800959e+00 0 0 0
245 2 1.0256915428303985e+01 6.0725042194918224e+00 8.5200626098555095e+00 0 0 0
246 2 9.5834700668953747e+00 5.9121099024305055e+00 7.0456389953759411e+00 0 0 0
247 1 1.0176008211103547e+01 1.1612367621067870e+01 1.1815700740710124e+00 0 0 0
248 2 9.4347901770658336e+00 1.2146930636596970e+01 1.4643729899083628e+00 0 0 0
249 2 1.0574525774524735e+01 1.1211750494563331e+01 1.9979204107501127e+00 0 0 0
250 1 1.2670447365504033e+01 1.3147560558296526e+01 7.6559360039952313e+00 0 0 0
251 2 1.3113329608141619e+01 1.2550340275608272e+01 8.3202565996523159e+00 0 0 0
252 2 1.3418985689992473e+01 1.3770485917714286e+01 7.4197233872955195e+00 0 0 0
253 1 1.5190856971230305e+01 4.3231652960475362e+00 1.1503856388014542e+00 0 0 0
254 2 1.5234021245864390e+01 3.8360809739367836e+00 1.9874632341077432e+00 0 0 0
255 2 1.4574769018291192e+01 5.0393177533375475e+00 1.3844983265389097e+00 0 0 0
256 1 1.7535172581069958e+01 6.3290003687584377e+00 7.9436586635682644e+00 0 0 0
257 2 1.7883728524214611e+01 5.7845004749919360e+00 8.7689228969586175e+00 0 0 0
258 2 1.6844631984234731e+01 6.7998817649454555e+00 8.4940163298723697e+00 0 0 0
259 1 1.7697653122217773e+01 1.1596803499307908e+01 1.2717215723366391e+00 0 0 0
260 2 1.7154919441228529e+01 1.2425160655850540e+01 1.4289442570762356e+00 0 0 0
1116 2 1.4912366817296830e+01 2.9978653842889745e+01 1.1680608246497396e+01 0 0 0
262 1 2.0048407318715078e+01 1.3479416643544678e+01 7.8536356546474613e+00 0 0 0
263 2 2.0398438127257528e+01 1.3063647874800006e+01 8.6855393131333170e+00 0 0 0
264 2 2.0730080103769808e+01 1.3988008340730071e+01 7.4640009992728231e+00 0 0 0
265 1 9.9419655084335830e+00 6.0216537466351596e+00 2.8232498440595131e+00 0 0 0
266 2 9.1454452408243778e+00 5.6852395026993285e+00 3.2495153925366327e+00 0 0 0
267 2 1.0237957685099296e+01 5.3810002350308892e+00 2.1438525695194688e+00 0 0 0
268 1 1.2103648835681179e+01 7.9909648912443023e+00 9.5485335224794561e+00 0 0 0
269 2 1.2441721093677501e+01 7.4281256704622827e+00 8.7486961988318530e+00 0 0 0
270 2 1.1333160945318934e+01 7.5605822044174946e+00 9.9327913059715414e+00 0 0 0
271 1 1.2321380755083638e+01 1.3556888780049114e+01 3.0806567815294850e+00 0 0 0
272 2 1.3110878766060978e+01 1.3335006732886981e+01 3.6618672127169383e+00 0 0 0
273 2 1.1525976759385550e+01 1.3105196454940115e+01 3.5362167906333153e+00 0 0 0
274 1 1.4817277727876780e+01 1.4852777577670908e+01 9.4628702394208517e+00 0 0 0
275 2 1.4396782390700441e+01 1.5621784644505727e+01 9.1476766840670489e+00 0 0 0
276 2 1.5506713755856333e+01 1.5083149521318223e+01 1.0093772335585443e+01 0 0 0
46 1 2.4216784347038946e+01 1.6947494384010319e+01 1.3327662980039445e+01 0 0 0
278 2 1.6386610506062581e+01 5.5220347147061304e+00 3.2810454471315325e+00 0 0 0
314 2 3.4295053351731788e+00 4.0386813644604649e+00 4.1007006539058849e-01 0 0 0
280 1 1.9663630079877471e+01 7.6244464666895588e+00 9.7776509262855225e+00 0 0 0
1138 1 1.7479713267505602e+01 3.0570206556080986e+01 1.2392559443768468e+01 0 0 0
850 1 1.1666726691294540e+01 2.3554454360255136e+01 7.7077113463487770e+00 0 0 0
283 1 1.9727564314717014e+01 1.3123557379212968e+01 2.7024161848425932e+00 0 0 0
215 2 2.1913769384347425e+01 1.1563435012539584e+01 1.0059096685750101e+01 0 0 0
119 2 1.7222197454103856e+01 1.2547928666974091e+01 1.3342387824283723e+01 0 0 0
286 1 2.2310301458111205e+01 1.4803577554945738e+01 9.6127294091510347e+00 0 0 0
461 2 1.8292680519273667e+01 3.3453828319139269e+00 8.2720093015008995e+00 0 0 0
288 2 2.1965953405918974e+01 1.5682983927586031e+01 9.3092861676925818e+00 0 0 0
289 1 6.0276420729016467e+00 6.7466334728641346e+00 1.5503813079155597e+00 0 0 0
290 2 5.6084639872190785e+00 6.7372676067844139e+00 2.4589612510560115e+00 0 0 0
291 2 6.7340301068930746e+00 7.4599208184791941e+00 1.5200979211707830e+00 0 0 0
292 1 8.4484572465491965e+00 8.7507969808571158e+00 8.4969431597839264e+00 0 0 0
293 2 9.0779551472248361e+00 8.0412698369572233e+00 8.1912738313759306e+00 0 0 0
294 2 9.0193728994737246e+00 9.5699711840762927e+00 8.4216836584520731e+00 0 0 0
295 1 8.3670612391840820e+00 1.3712484844323201e+01 2.0095836600878547e+00 0 0 0
296 2 8.0169174371989040e+00 1.3438046255000597e+01 2.9172308856584874e+00 0 0 0
297 2 7.5233221566509370e+00 1.3949896664337821e+01 1.5760342810385957e+00 0 0 0
298 1 1.1212654618688919e+01 1.5813735548933680e+01 8.5564470643613610e+00 0 0 0
299 2 1.1347163476208316e+01 1.4902939522069829e+01 8.1494087825649402e+00 0 0 0
300 2 1.0402028849472165e+01 1.6140881108249232e+01 8.1014335710674388e+00 0 0 0
301 1 1.3659144108842082e+01 6.9776988978266399e+00 1.9622330405684505e+00 0 0 0
302 2 1.3386262504312484e+01 6.8685799889283885e+00 2.8936739152473598e+00 0 0 0
303 2 1.4381320642253732e+01 7.5876953313951940e+00 1.9320362696132611e+00 0 0 0
304 1 1.5778563840915952e+01 8.2873368963558445e+00 8.7566748757465636e+00 0 0 0
305 2 1.5421121863211839e+01 8.1246013461810698e+00 9.6643995208915729e+00 0 0 0
306 2 1.6516300220798264e+01 8.9299221686376047e+00 8.8721090500541635e+00 0 0 0
307 1 1.6073123777383792e+01 1.3738451916020122e+01 2.0788091672046471e+00 0 0 0
308 2 1.5206293043619208e+01 1.3992455262634179e+01 1.6912125909136475e+00 0 0 0
309 2 1.6704922456025315e+01 1.4497791987775971e+01 2.0090260624593643e+00 0 0 0
310 1 1.8387999433740582e+01 1.5470310754495706e+01 8.8078573870726480e+00 0 0 0
311 2 1.8961162045808059e+01 1.4700674419705805e+01 8.6062252997277557e+00 0 0 0
312 2 1.7781899761360741e+01 1.5724471566188408e+01 8.1160974104884573e+00 0 0 0
313 1 3.6912945741535057e+00 4.9164831539219094e+00 8.2222494989492589e-01 0 0 0
279 2 1.7534843090393501e+01 5.7004481179441662e+00 2.2044972886821830e+00 0 0 0
315 2 4.2481322590443256e+00 4.6624762548135950e+00 1.5863547657178239e+00 0 0 0
316 1 6.3066703933106556e+00 6.5910165116060995e+00 7.7515432511106077e+00 0 0 0
317 2 6.6063707637908182e+00 7.2730112074853217e+00 7.0586587339846085e+00 0 0 0
318 2 5.6228868470763782e+00 7.0245941770046496e+00 8.3049932415155894e+00 0 0 0
319 1 6.2088656590785600e+00 1.1802223050329802e+01 1.0752858261360518e+00 0 0 0
174 2 1.1146293885542816e+01 5.7448339528403416e+00 1.3664440624169128e+01 0 0 0
321 2 6.8827169367932770e+00 1.1505917867951798e+01 1.6987660122962140e+00 0 0 0
322 1 9.0245201240712003e+00 1.3567436206980377e+01 7.5888526684112954e+00 0 0 0
323 2 8.2715640089993929e+00 1.4102187585041815e+01 7.9373088389990576e+00 0 0 0
324 2 8.5314107287124763e+00 1.2773381339071367e+01 7.2004699974435802e+00 0 0 0
325 1 1.1343627882168295e+01 4.5158331447166997e+00 1.0437215584876829e+00 0 0 0
345 2 6.2308518470434171e+00 1.3201432454226524e+01 4.1321881317816676e+00 0 0 0
1011 2 1.3349765764951398e+01 1.9094862776373898e+01 5.5160437736489465e-01 0 0 0
328 1 1.3755729654706583e+01 6.5576597045963840e+00 7.8342359491245661e+00 0 0 0
329 2 1.3433032738514836e+01 5.6536988065070961e+00 7.5401881497299019e+00 0 0 0
330 2 1.4297370884434761e+01 6.3577134102952702e+00 8.6162904950460746e+00 0 0 0
331 1 1.3961322088517234e+01 1.1686372430685122e+01 1.2119559076289927e+00 0 0 0
332 2 1.3210486131702593e+01 1.2159653217928385e+01 1.5691410324434736e+00 0 0 0
333 2 1.4654651801591029e+01 1.1669994123554879e+01 1.9464166071094597e+00 0 0 0
334 1 1.6568412530266684e+01 1.3420596848851039e+01 7.6462862300765675e+00 0 0 0
335 2 1.6865613516452115e+01 1.3932852137630057e+01 6.8666561529159154e+00 0 0 0
336 2 1.5895898275162432e+01 1.3990373096947916e+01 8.0997568558576347e+00 0 0 0
337 1 4.4370039574636984e+00 6.6970119464773950e+00 4.0202128518510953e+00 0 0 0
338 2 4.5500198550741384e+00 5.8944237740716527e+00 4.6102936664493024e+00 0 0 0
847 1 8.7105861662848820e+00 2.1866731726524339e+01 5.0656281188828722e-01 0 0 0
340 1 7.0538478323042195e+00 8.3480306604816015e+00 1.1085047016932998e+01 0 0 0
285 2 2.0475485935022895e+01 1.3321342668117000e+01 3.3156567324442729e+00 0 0 0
342 2 7.6459985735427622e+00 8.6202028443758589e+00 1.0382602158390030e+01 0 0 0
343 1 7.0401543867761465e+00 1.3248502680387238e+01 4.6116778838825816e+00 0 0 0
210 2 1.9181742652584781e+01 4.8579250177146873e+00 1.0231794274319926e+01 0 0 0
860 2 1.5738676183312897e+01 2.1586614835042869e+01 2.9734061566254644e-01 0 0 0
346 1 9.7482331926196881e+00 1.5325569293972782e+01 1.0938972258201678e+01 0 0 0
347 2 1.0360624500606800e+01 1.5474985762795367e+01 1.0139962719768326e+01 0 0 0
348 2 9.9200017482069143e+00 1.4412805923710696e+01 1.1230931306528094e+01 0 0 0
349 1 1.2201746195569854e+01 6.4091563525858133e+00 4.3131864266018516e+00 0 0 0
350 2 1.2223170811125293e+01 7.2815795343120930e+00 4.8423840046387809e+00 0 0 0
351 2 1.1291759060441429e+01 6.3511255916553218e+00 3.8741846342048563e+00 0 0 0
352 1 1.4279381193116455e+01 8.0558874694622062e+00 1.0989401254168348e+01 0 0 0
353 2 1.4477278629450479e+01 7.2915155385790946e+00 1.1549315538508296e+01 0 0 0
354 2 1.3289629613075023e+01 7.9827484012183589e+00 1.0716025003422470e+01 0 0 0
355 1 1.4648441037780753e+01 1.3276155764742548e+01 4.5113719943946302e+00 0 0 0
356 2 1.5042162417454801e+01 1.2534610671736882e+01 5.0108873464891230e+00 0 0 0
357 2 1.5256254307178153e+01 1.3463958870679043e+01 3.7529410690758129e+00 0 0 0
358 1 1.6921427121146806e+01 1.5175533597819500e+01 1.1236532567477951e+01 0 0 0
359 2 1.7034565417427160e+01 1.5964068746949877e+01 1.1889512122173553e+01 0 0 0
360 2 1.7473752808795219e+01 1.5336646138903804e+01 1.0476769650407636e+01 0 0 0
361 1 7.1415628849439239e+00 7.9645423657146157e+00 5.3512843602499078e+00 0 0 0
362 2 6.6999782423340877e+00 8.6712993185433245e+00 4.8843896762291594e+00 0 0 0
363 2 8.0270424946222736e+00 8.2953292084728787e+00 5.5629209293785706e+00 0 0 0
364 1 9.9428097893964065e+00 8.9531644071931957e+00 1.2206356855755743e+01 0 0 0
365 2 9.4947222177015664e+00 9.8275098056228281e+00 1.1994786729291183e+01 0 0 0
366 2 9.6796446933489921e+00 8.7772573187944438e+00 1.3135910299608273e+01 0 0 0