LAMMPS data file via write_data, version 15 Apr 2020, timestep = 0

6144 atoms
2 atom types

-1.7688294093352361e+00 6.1737118540516022e+01 xlo xhi
0.0000000000000000e+00 2.8071352453175141e+01 ylo yhi
0.0000000000000000e+00 2.7131248366756417e+01 zlo zhi
1.0152563162050086e+01 1.0177190780552877e+01 7.1133449759119607e+00 xy xz yz

Masses

1 16
2 2

Atoms # atomic

1595 2 1.7492462193171434e+01 2.4989623898052322e+01 2.0882925555810573e+01 0 0 0
1604 2 1.6799304173455205e+01 1.9108155435766765e+01 2.4655847170029059e+01 0 0 0
831 2 1.2257408776733168e+01 2.6740057722065327e+01 1.1551253874571945e+01 0 0 0
987 2 1.4776268270388957e+01 1.1905690851955057e+01 1.9822847236399674e+01 0 0 0
225 2 6.2703061100184989e+00 4.7073132263302977e+00 5.4032162144983680e+00 0 0 0
52 1 1.1298936731057484e+01 2.4373953069145372e+01 8.3510492518087087e+00 0 -1 0
25 1 8.6384118203248388e+00 1.2216613741566674e+01 5.8338305084999824e+00 0 0 -1
1625 2 1.1903768718568148e+01 1.8639686413015962e+01 1.8829334949130274e+01 0 0 0
2464 1 1.3032582866152380e+01 1.5702227208137572e+01 5.7270151888261998e+00 0 1 0
886 1 1.4241026939074054e+01 2.2888431156420275e+01 1.8817729304532090e+01 0 1 -1
1633 1 1.6988000858019429e+01 1.3559137779359094e+01 2.1289313358129391e+01 0 0 0
849 2 1.3978409505912353e+01 1.6532475346283206e+01 9.5646206402178926e+00 0 0 -1
2443 1 1.0326787576771098e+01 1.1355383561755769e+01 7.7444072825500339e+00 0 1 0
358 1 1.5533421536245246e+01 2.6390334826720022e+01 2.3693067441304322e+01 0 0 0
2466 2 1.2732167273701032e+01 1.5479127189576362e+01 4.8089840144538298e+00 0 1 0
1895 2 1.4017939586953219e+01 1.4614292575413691e+01 6.6756979121337610e+00 0 0 1
1670 2 5.4843570778444111e+00 7.4423970446089216e+00 2.4137857160050840e+00 0 0 0
1634 2 1.6767405077307508e+01 1.4382261397574950e+01 2.1733571228919654e+01 0 0 0
1064 2 2.1450617610840109e+01 2.7114129500703022e+01 1.7888513306509598e+01 0 0 -1
1894 1 1.4433414562868403e+01 1.3931659749136482e+01 7.2367501062942328e+00 0 0 1
1740 2 1.7201978396418387e+01 2.3654821876085414e+01 2.4476919961341892e+01 0 0 0
1916 2 1.4891044326279488e+01 2.4349866650492647e+01 1.2736987064476304e+01 0 0 0
611 2 5.9870453829096295e+00 4.4685375618610728e+00 1.3491878003857327e+01 0 1 0
1709 2 1.3856598097598722e+01 6.7536931019466593e+00 1.7544543809155886e+01 0 0 0
487 1 1.6803869338184175e+01 2.6047890033437024e+01 2.6116314630075909e+01 0 0 -1
53 2 1.0717251035623338e+01 2.5170461232485138e+01 8.4565941578393549e+00 0 -1 0
1587 2 1.0624341975896648e+01 1.2860949575306961e+01 1.1038652074249910e+01 0 0 0
1586 2 1.1643160262883015e+01 1.3499749917319917e+01 1.2160582489793660e+01 0 0 0
857 2 1.8477972811529391e+01 9.1667220822512707e+00 7.7161396395771318e+00 0 0 0
2564 2 8.0641248205321201e+00 1.5680690986081032e+01 7.5323969245563782e-02 0 1 0
416 2 1.2981620667006251e+01 1.6824911180858429e+01 1.9492363865804226e+01 0 0 0
1871 2 1.3893364483543250e+01 2.5805325652145491e+01 2.0152855577360747e+01 0 0 0
610 1 6.5113613717672774e+00 3.7105908773126592e+00 1.3768823304559536e+01 0 1 0
1275 2 1.5527666806452626e+01 1.6083297448269853e+01 2.6204567349553898e+01 0 0 -1
2396 2 1.2933331555940420e+01 3.0555391696372400e+01 1.0191815371825710e+01 0 0 0
2450 2 1.5601050191256274e+01 2.2525040427511659e+01 2.3144578622502920e+01 0 0 0
1708 1 1.3281897513081059e+01 7.2886534087101369e+00 1.6937320535073979e+01 0 0 0
27 2 7.8460112286051871e+00 1.2788505497310535e+01 6.1019121671652075e+00 0 0 -1
907 1 1.8556080647416017e+01 2.8138952588117970e+01 2.1736690179514088e+01 0 0 -1
99 2 1.3746519139174159e+01 7.2097557923547999e+00 5.0882897684115189e+00 0 0 0
1561 1 8.9441070332766195e+00 1.5261649194300306e+01 1.2177002518841062e+01 0 0 0
1901 2 1.1351553459043828e+01 9.9350597632858157e+00 2.5094687496700256e+01 0 0 0
174 2 2.9680054545204868e+01 3.1895773618988581e+01 1.9860635887675532e+01 0 -1 -1
2623 1 1.0318705686161405e+01 1.6745243332479767e+01 2.1233250466942465e+01 0 0 0
924 2 1.6020803546908379e+01 1.7893045079717567e+01 9.4036651569804324e+00 0 0 0
147 2 1.4328980120910007e+01 3.0880878196465932e+01 1.6974323834913523e+01 0 -1 -1
224 2 7.0169465203691246e+00 4.7983301562140586e+00 3.9743996378150679e+00 0 0 0
1781 2 1.0378298496941422e+01 1.1579383401717342e+01 1.2910703315522579e+01 0 0 0
1710 2 1.3804064863290975e+01 8.1219278012880931e+00 1.6754322916379458e+01 0 0 0
1689 2 1.1675134431876309e+01 8.0722622016566987e+00 8.0118933024070174e+00 0 0 0
1705 1 1.5043613966558009e+01 1.5492084977667606e+01 1.5541271830662112e+01 0 0 -1
1773 2 2.1769032852742043e+01 2.9869317812809669e+01 2.3966125562804425e+01 0 0 -1
101 2 5.1520142148532724e+00 7.9291042898833979e+00 8.1458186937271773e+00 0 0 0
1570 1 1.2880705670820499e+01 1.1748270300277859e+01 1.5565127603712753e+01 0 0 1
2314 1 1.3644113625311924e+01 2.4608686557624338e+01 7.4293810267941245e+00 0 0 1
1129 1 1.3566851656998823e+01 1.5992223298831199e+01 2.2296346359517131e+01 0 0 -1
2360 2 9.0520523698867983e+00 1.4242309514208616e+01 1.0881789195445172e+01 0 0 0
1635 2 1.6499679030285936e+01 1.3581220711297618e+01 2.0457314296176726e+01 0 0 0
1017 2 1.1210209179955449e+01 3.5370193661697003e+00 1.2419803996154087e+01 0 1 -1
68 2 2.4874596673583454e+01 2.5494468352543318e+01 7.8331589427928439e+00 0 -1 -1
821 2 9.2780412764187332e+00 1.8109016683006004e+01 2.7603756029367839e+00 0 0 0
1059 2 9.9543227187600820e+00 2.6462886878375688e+01 1.7937986994245259e+00 0 0 0
896 2 2.0297154147568715e+01 2.8644489649401379e+01 1.9066093502308259e+01 0 0 -1
868 1 7.2539176756325947e+00 1.5465613405430513e+01 8.9467414267663337e+00 0 0 0
3034 1 3.3206382397357331e+01 3.4668895722939617e+01 2.6512382888915386e+01 0 0 0
1571 2 1.2536697023569888e+01 1.2696966852191935e+01 1.5611358264394029e+01 0 0 1
1659 2 1.7401970840290442e+01 2.6932738301272252e+01 1.8489128069824325e+01 0 -1 0
894 2 1.0440954876504852e+01 1.7539846868965615e+01 9.7113632811624431e+00 0 0 0
2343 2 1.4559050739565560e+01 2.0951546876094980e+01 2.5361966737337877e+01 0 1 0
1274 2 5.7904972800013752e+00 8.2495673150436417e+00 4.2023464138231897e-01 0 0 0
1113 2 1.3372300623920285e+01 2.3292917592984288e+01 1.4020960119431326e+01 0 0 0
1669 1 5.1151024664222353e+00 7.2498354019878697e+00 1.5249429098239129e+00 0 0 0
1063 1 2.0602173828519948e+01 2.7619418739227346e+01 1.7916578057966444e+01 0 0 -1
1671 2 5.4609341240376272e+00 6.3641965745185560e+00 1.2679200760153457e+00 0 0 0
1791 2 4.4492133138508638e+00 7.6158251035694988e+00 4.8403045823632311e+00 0 0 1
1001 2 7.3395870054816168e+00 1.5008779526978579e+01 5.9409302506774093e+00 0 0 0
846 2 1.6007262695092056e+01 1.7513369202869740e+01 2.3305461143375190e+01 0 0 -1
1575 2 2.6310852162124249e+01 3.0391157822480633e+01 1.2978768389195368e+01 0 -1 0
1739 2 1.7055037761520811e+01 2.2362635981670486e+01 2.5333379152969069e+01 0 0 0
822 2 8.3863127038340988e+00 1.8074537544371744e+01 1.5856563344269745e+00 0 0 0
2471 2 1.7369012065721552e+01 8.5198610566602415e+00 1.8329533640101459e+01 0 1 0
1112 2 1.3209669935347602e+01 2.1945271947216867e+01 1.3539249045302830e+01 0 0 0
887 2 1.3357780988744398e+01 2.2582901625915781e+01 1.9173508178451772e+01 0 1 -1
2465 2 1.3401494506840589e+01 1.6686880312753242e+01 5.6802400763486443e+00 0 1 0
54 2 1.1264892676200796e+01 2.3880243114398002e+01 9.1818977007857701e+00 0 -1 0
102 2 5.7965106553853705e+00 9.3029726944840245e+00 8.5664848191861402e+00 0 0 0
223 1 6.9794395257516300e+00 5.1819074385502049e+00 4.8698237074965096e+00 0 0 0
1917 2 1.5662333430666155e+01 2.5722507416011688e+01 1.2905107861811135e+01 0 0 0
353 2 7.3550450114270625e+00 1.0808293178635815e+01 8.4381017952040160e+00 0 0 0
2407 1 1.1377932956152316e+01 1.3641788963762057e+01 8.7636587001803115e+00 0 0 0
1687 1 1.1711236034625276e+01 7.2990598976687968e+00 8.6567952279120064e+00 0 0 0
986 2 1.5111873276852528e+01 1.3005579694862149e+01 1.8677734675367546e+01 0 0 0
1706 2 1.5026181329330768e+01 1.5064179786128031e+01 1.4636343171623187e+01 0 0 -1
1703 2 9.3667049493402494e+00 1.2213240335679266e+01 1.4567290373981358e+01 0 0 0
1521 2 1.9286825054711286e+01 1.1310802424619027e+01 6.8421153013573761e+00 0 0 0
1688 2 1.1586607521287410e+01 7.6294262543751312e+00 9.5813506115764451e+00 0 0 0
1002 2 6.0132466577250607e+00 1.4400503684104230e+01 6.6460319876677483e+00 0 0 0
2667 2 8.4937098452127167e+00 1.7682903685876571e+01 1.0884852989936455e+01 0 0 0
922 1 1.6440767988461939e+01 1.8638833781544754e+01 9.8662855580186353e+00 0 0 0
2409 2 1.2250130499117978e+01 1.3669513911686391e+01 9.2692560848272088e+00 0 0 0
845 2 1.4925289997178123e+01 1.8532627368312745e+01 2.3788942907371851e+01 0 0 -1
1563 2 9.5581138409349755e+00 1.6023976800991008e+01 1.2263593152695835e+01 0 0 0
908 2 1.8924339557638891e+01 2.8352698986810672e+01 2.0880499479322776e+01 0 0 -1
893 2 1.1250788691134241e+01 1.8452596760192531e+01 8.7922611540614053e+00 0 0 0
28 1 1.7513982538736148e+01 2.3681437122483032e+01 1.1877344719031495e+01 0 0 0
1107 2 5.2311079442295627e+00 1.7973425615235705e+01 1.7372780328025721e+00 0 0 0
2427 2 8.9285470147480090e+00 1.2519894701918414e+01 2.1090924553682594e+01 0 0 0
300 2 1.1930667149578751e+01 2.0279354248639468e+01 7.7983762878987868e+00 0 0 0
1585 1 1.1228877021358951e+01 1.2650024361639058e+01 1.1772268755305699e+01 0 0 0
2414 2 1.2647591608523081e+01 1.7154089308326693e+01 1.5496808344088382e+01 0 0 1
2436 2 2.1340973998425000e+01 2.0515055371357185e+01 1.1640297178156786e+01 0 0 0
2441 2 1.7382181038003193e+01 2.2912001076456473e+01 7.2523184378128187e+00 0 0 1
847 1 1.3302855287248800e+01 1.6378538589038900e+01 1.0215386761677694e+01 0 0 -1
1562 2 8.6126466759204980e+00 1.5180493893278863e+01 1.3119342087674122e+01 0 0 0
1015 1 2.1061689677453458e+01 3.1002432482587395e+01 1.3129697072338734e+01 0 0 -1
1738 1 1.6502234294201148e+01 2.3058082883566151e+01 2.4913813159576645e+01 0 0 0
949 1 2.2559005685101827e+01 2.1431944649858195e+01 1.6004002400861392e+01 0 -1 0
30 2 1.7569719421212476e+01 2.4648787096741469e+01 1.2041530117943502e+01 0 0 0
1879 1 9.8944460146853466e+00 1.1034517515009263e+01 2.1741917345744859e+01 0 0 0
248 2 3.4848026517322994e+00 6.1766710419241058e+00 7.6574073495604091e+00 0 0 0
150 2 1.9412278814105566e+01 3.4269090526701547e+01 2.5000198118721048e+01 0 -1 -1
2440 1 1.7806785036959869e+01 2.2210869028606005e+01 7.7971802121385680e+00 0 0 1
98 2 1.4307164030600742e+01 6.6478857567656986e+00 3.8160217715238343e+00 0 0 0
2408 2 1.1285038592752741e+01 1.4405660548459005e+01 8.1595464067104544e+00 0 0 0
369 2 1.8821086597946501e+01 1.0678772388220931e+01 1.0625803701610073e+01 0 0 -1
1065 2 2.0281927576037997e+01 2.7716643990891967e+01 1.6983767460676575e+01 0 0 -1
1130 2 1.3052208829989056e+01 1.6804596886718194e+01 2.2144227413396703e+01 0 0 -1
2355 2 1.9343988054486108e+01 2.3666066354683675e+01 2.0344735915248442e+01 0 0 0
962 2 2.4728499282195639e+01 2.7015049570013534e+01 2.2617509401216843e+01 0 0 -1
888 2 1.4269851524108912e+01 2.2642321405461391e+01 1.7875064141969556e+01 0 1 -1
2655 2 1.7521440062077996e+01 9.3516028603210195e+00 2.6852953334588108e+00 0 1 0
299 2 1.0571443808608070e+01 1.9917588706050065e+01 7.3218591283337666e+00 0 0 0
626 2 2.1837946858643665e+01 1.3683156852022837e+01 2.7109242754004015e+01 0 0 -1
873 2 1.1915496637499125e+01 1.4344848460251638e+01 1.4412683936759331e+01 0 0 0
105 2 7.8140514529929526e+00 1.2443587330240954e+01 9.6522918376199573e+00 0 0 0
2311 1 2.1009975297703175e+01 1.5034557140312117e+01 2.6404255309569635e+01 0 1 -1
1515 2 1.0930954326817375e+01 1.6614661404743035e+01 7.7827810393757906e+00 0 0 0
1896 2 1.4316657630036485e+01 1.4150444327495713e+01 8.2203308006468454e+00 0 0 1
1546 1 1.3958745290992852e+01 1.5922659348602439e+01 2.5006867731224006e+01 0 1 0
984 2 2.0041908549981642e+01 7.3403987816056722e+00 1.2908225174205011e+01 0 1 -1
588 2 5.9899350846299271e+00 1.0594447783247826e+01 4.1614105879145775e+00 0 0 0
909 2 1.7739156944543421e+01 2.7649106133223686e+01 2.1500137641054639e+01 0 0 -1
2668 1 2.1105744047519867e+01 2.3747073828103140e+01 1.2167599213684870e+01 0 0 0
2354 2 2.0346049679287521e+01 2.3061046936361244e+01 1.9247634542192710e+01 0 0 0
870 2 7.8945630043650024e+00 1.6233498853801727e+01 9.0601266042527620e+00 0 0 0
435 2 1.8643586153394047e+01 9.6289008534310501e+00 1.2814016114335017e+01 0 0 -1
1273 1 1.6202455083774215e+01 1.6083733182546915e+01 2.6900894623406181e+01 0 0 -1
1132 1 8.8693290461139469e+00 6.7678882882960458e+00 8.3011226791768689e+00 0 1 0
1780 1 9.7444930508289147e+00 1.1055927043582049e+01 1.3406018069489065e+01 0 0 0
898 1 1.3884433452023517e+01 2.6265179115991888e+01 1.6923343696574882e+01 0 0 0
1514 2 1.1673138796409296e+01 1.5826199021072398e+01 6.6552031833703360e+00 0 0 0
2595 2 4.2247253460856946e+00 8.0830872226459753e+00 1.0031655845422909e+01 0 1 0
352 1 7.3892985117789589e+00 9.8588054816361712e+00 8.3279684019343936e+00 0 0 0
961 1 2.5358973565613230e+01 2.7046468409805883e+01 2.3328555605028878e+01 0 0 -1
885 2 1.4856988824068242e+01 5.5204934082917401e+00 1.9210492178538246e+01 0 1 -1
2458 1 2.3465461857727025e+01 1.3257765828207484e+01 2.0522644915150085e+01 0 0 0
2316 2 1.4109780680284452e+01 2.5172954453812494e+01 8.1048391558076442e+00 0 0 1
2403 2 1.5450816309913044e+01 2.9814700827156084e+01 2.2771557367264450e+01 0 0 0
818 2 9.9513632878206053e+00 6.0090283451327515e+00 1.6736669123978960e+01 0 1 -1
775 1 1.1093190908815384e+01 2.3416326353668818e+01 5.8943873624474277e+00 0 0 0
1603 1 1.7324029815674429e+01 1.9589576776205728e+01 2.5333234397867297e+01 0 0 0
3036 2 3.2725045383896372e+01 3.4081169056131841e+01 2.7119179539753368e+01 0 0 0
1605 2 1.6666237535605038e+01 1.9895622917595993e+01 2.6004587671874685e+01 0 0 0
2532 2 1.3004909527451886e+01 2.3315208560529602e+01 1.6105776283055679e+01 0 0 0
33 2 9.6838461782399392e+00 2.5957324095402601e+01 6.1899922739027424e+00 0 0 0
100 1 4.9863600389682574e+00 8.7710595562747358e+00 8.6051994526753592e+00 0 0 0
1877 2 1.2765948382202172e+01 5.3214413748459846e+00 2.0152129329238104e+01 0 0 0
2669 2 2.0675157650166675e+01 2.4219919907042136e+01 1.2932286671528209e+01 0 0 0
2323 1 7.4188339116499762e+00 2.0968190294839371e+01 2.0915434826564483e+00 0 1 1
72 2 1.1136772715020022e+01 2.0554420122525087e+01 1.0913023200024680e+01 0 0 0
1016 2 1.0227505005014979e+01 3.5611334580391287e+00 1.3551430193374051e+01 0 1 -1
2283 2 1.4429697603788853e+01 2.1106956454462267e+01 8.0253440142923331e+00 0 -1 0
995 2 5.2311300832281287e+00 1.0369124559095704e+01 7.9827470326670968e-01 0 1 0
97 1 1.4016691797946041e+01 6.3699417071112929e+00 4.7019851999710944e+00 0 0 0
2361 2 9.9706896414500150e+00 1.3718546652112945e+01 9.5752702759562194e+00 0 0 0
1874 2 1.1869657855397628e+01 2.3353195004942570e+01 1.2226497781804865e+01 0 -1 0
1513 1 1.0820262811291922e+01 1.5803450152149770e+01 7.1979296475479773e+00 0 0 0
1078 1 1.7638313683224837e+01 2.8129412897790445e+01 1.3881000462880397e+01 0 0 0
963 2 2.6001420020230508e+01 2.7667538507642789e+01 2.3004845074233540e+01 0 0 -1
1547 2 1.3801937508466661e+01 1.5928070686895193e+01 2.4064359968614333e+01 0 1 0
2353 1 2.0219106543398695e+01 2.3260793351079165e+01 2.0203483113655796e+01 0 0 0
917 2 1.3436108657240881e+01 1.3547474489709217e+01 2.6770150018772540e+01 0 1 -1
2382 2 1.1421285280928494e+01 2.2122938352630769e+01 1.4644269749163175e+01 0 0 0
985 1 1.5479609318562435e+01 1.2356126124506716e+01 1.9263494279982631e+01 0 0 0
1884 2 1.0908865558171239e+01 1.8398853686895787e+01 1.2307000620063958e+01 0 0 0
76 1 9.6152958745503696e+00 2.4966046576054069e+01 2.6808965598533967e+00 0 -1 0
298 1 1.1067377635709800e+01 1.9918842832866346e+01 8.1717613286010540e+00 0 0 0
1707 2 1.4642016017572335e+01 1.6335144056552252e+01 1.5380604178263599e+01 0 0 -1
1475 2 2.4410832548430715e+01 1.9414890672075671e+01 1.1988873175953833e+01 0 0 0
612 2 7.4610794208882751e+00 4.0533184224711434e+00 1.3830224934551834e+01 0 1 0
1675 1 1.1452103401238851e+01 1.6398109696071753e+01 1.6531838794027568e+01 0 0 0
1079 2 1.7871060485719436e+01 2.8759224836584220e+01 1.3153823628223874e+01 0 0 0
883 1 1.5019763451603087e+01 5.9154955048436957e+00 1.8277430668788892e+01 0 1 -1
2442 2 1.8324115796616685e+01 2.2694036498980783e+01 8.4772958326287569e+00 0 0 1
1915 1 1.4947857338140000e+01 2.5153058943827091e+01 1.3281383426190530e+01 0 0 0
2451 2 1.4451806607075259e+01 2.2930846868024588e+01 2.2281968207177886e+01 0 0 0
2315 2 1.2732347989812524e+01 2.4614989818444112e+01 7.7901161732772710e+00 0 0 1
1629 2 2.2619657686333429e+01 1.8176876478715585e+01 1.5333735818858576e+01 0 0 0
983 2 1.9858013073474407e+01 6.2597787301495664e+00 1.3971811784170777e+01 0 1 -1
923 2 1.7100477171850518e+01 1.8224070292669573e+01 1.0439394712345610e+01 0 0 0
2572 1 1.4053759800710292e+01 2.2158956729652026e+01 1.6173239468267585e+01 0 0 0
354 2 8.2034240041872017e+00 9.5757050617288098e+00 8.8007518800281410e+00 0 0 0
156 2 1.6579116132736139e+01 2.9892859223325161e+01 1.0379279100797300e+01 0 -1 0
1589 2 9.0383622972782334e+00 2.3788215903146039e+01 1.5828329183465906e+00 0 -1 1
1616 2 1.6037042091693483e+01 2.3350466773595855e+01 1.1207075784145559e+01 0 -1 0
1050 2 1.3993100798691884e+01 1.9875103022941275e+01 2.8236659233589374e+00 0 0 0
1081 1 1.8789922984899658e+01 1.7184956166556098e+01 1.7922718815851308e+01 0 0 -1
1594 1 1.7870925249223951e+01 2.4101460532452187e+01 2.0985976239135145e+01 0 0 0
2445 2 9.5498926734139307e+00 1.1629030000884816e+01 7.1749911024914033e+00 0 1 0
1588 1 8.4296800678558146e+00 2.3227089259706808e+01 1.1468249559661317e+00 0 -1 1
1150 1 1.6670870141788409e+01 2.1817235028389248e+01 1.9679003185165087e+01 0 0 0
1841 2 2.2583573201477900e+01 1.5381486272547512e+01 2.3652472298835825e+01 0 0 0
313 1 1.6235197125041669e+01 1.9312660007203153e+01 1.7663716960260434e+01 0 0 -1
1118 2 2.3230265447157922e+01 2.6181049376485959e+01 2.1031567213952155e+01 0 0 -1
1872 2 1.4498928228175739e+01 2.4496243079298601e+01 1.9476070088745459e+01 0 0 0
2613 2 1.8182270157656372e+01 2.5135667289431638e+01 8.9406805340754971e+00 0 0 1
1133 2 8.7368961911533205e+00 5.7933648101371595e+00 8.2365583633035779e+00 0 1 0
1762 1 9.7182624183830857e+00 9.6749727564581889e+00 9.8737002128065736e+00 0 0 0
2556 2 1.9195368666854758e+01 1.8183482634030021e+01 2.1500330157176688e+01 0 0 0
2548 1 1.8827839315924326e+01 9.7278669200465622e+00 2.4395512430239879e+01 0 1 0
1870 1 1.4665684325781530e+01 2.5480580030641192e+01 1.9654249193907688e+01 0 0 0
1662 2 7.1065413325672893e+00 1.7607386775964311e+01 2.7817500145275855e+00 0 -1 1
1136 2 1.0879881078107530e+01 1.2592681038395252e+01 2.4731090916992795e+01 0 1 -1
1736 2 1.2577688415506941e+01 1.1289785635442852e+01 1.1409390525275869e+01 0 0 0
376 1 2.1088065680330608e+01 3.1344700863072166e+01 1.8001583428899142e+01 0 -1 0
1109 2 1.0843617501329119e+01 9.7829241194776770e+00 1.4168609280759163e+01 0 0 0
372 2 1.6270749759724684e+01 7.4525696279498836e+00 2.1785125080872248e+01 0 0 0
333 2 1.6265414270765639e+01 3.2425809044908050e+01 1.6758205655639379e+01 0 0 0
2555 2 1.9807124261605722e+01 1.7466646746126180e+01 2.2765467109957235e+01 0 0 0
374 2 6.4484763930044018e+00 8.1418799194026690e+00 4.8079668019982291e+00 0 0 0
1801 1 1.3975309388219788e+01 2.0487356328637382e+01 1.2477510109300139e+01 0 -1 0
442 1 8.6391168712959239e+00 7.3534331364976904e+00 9.3980947050987462e-01 0 0 0
2601 2 1.8254769011477865e+01 1.9400961351693294e+01 6.4297705660078206e+00 0 0 0
2600 2 1.8146489526029502e+01 2.0486807039813186e+01 7.4186680102508022e+00 0 0 0
188 2 1.6045712747081552e+01 2.0233269502259319e+01 9.5850531156108385e+00 0 0 0
2444 2 1.0893909784193704e+01 1.2154902500646338e+01 7.8991551062168099e+00 0 1 0
1489 1 2.3152461583387346e+01 1.7070054438555299e+01 1.0723310712382075e+01 0 0 0
2642 2 7.0807074757912467e+00 4.0234425366229853e+00 8.6753683161057822e+00 0 0 1
2307 2 6.9217912523911700e+00 1.1332506544278116e+00 3.6111026066142640e+00 0 0 0
1119 2 2.2622384813644928e+01 2.6657959978195311e+01 2.2362530089256680e+01 0 0 -1
1088 2 1.9778125176322458e+01 2.8605727155602210e+01 2.6731438621529193e+01 0 0 -1
2481 2 1.9662862819944070e+01 9.3719122467372387e+00 1.5915121188048076e+01 0 1 -1
269 2 1.6180477281477700e+01 1.8524969741654175e+01 1.9335346939650019e+01 0 -1 -1
2306 2 1.8516175436534777e+01 2.9014426172032262e+01 3.7505429014486258e+00 0 -1 0
198 2 1.9295062429386288e+01 2.7187119415171768e+01 9.9851415894619944e+00 0 -1 0
1089 2 2.1289021938333217e+01 2.8762771037890428e+01 2.6404107281928308e+01 0 0 -1
2468 2 8.5360699624893712e+00 1.5175961422868713e+01 3.7699710927936447e+00 0 0 1
2570 2 1.9160098973871246e+01 2.6612552051486865e+01 5.6966314320089229e+00 0 0 0
776 2 1.1191878646726481e+01 2.3431844028355140e+01 6.8465165213134949e+00 0 0 0
830 2 1.2333756990144334e+01 2.6265678189984083e+01 1.0195120417154321e+01 0 0 0
1658 2 1.8974586474116489e+01 2.6508986070658221e+01 1.8375816321508022e+01 0 -1 0
1103 2 1.0873894625483871e+01 1.1444353471896616e+01 2.7023356230093693e+01 0 1 -1
2604 2 1.9022896142455060e+01 1.6207084604055883e+01 2.5208443290301794e+01 0 1 0
2397 2 1.4280319685273696e+01 3.0586218027712945e+01 1.1090482688626636e+01 0 0 0
1134 2 9.8418974253483178e+00 6.8718981006448381e+00 8.2981074761906601e+00 0 1 0
2644 1 1.2013164541679291e+01 1.0512008049025329e+01 1.8153529867813258e+01 0 0 0
312 2 2.5762860210485258e+01 2.8451807885347854e+01 5.7919519056533222e+00 0 -1 0
332 2 1.6062155426649003e+01 3.1695936136354920e+01 1.5314206839960351e+01 0 0 0
1735 1 1.3087213560746846e+01 1.0457794190639508e+01 1.1387545670394545e+01 0 0 0
2646 2 1.2492254741924256e+01 1.0988943848634324e+01 1.7531686358407590e+01 0 0 0
2413 1 1.3477693482447544e+01 1.7619901307016466e+01 1.5209918325269021e+01 0 0 1
895 1 2.0028414547866173e+01 2.9407278030936908e+01 1.9703145084656114e+01 0 0 -1
2603 2 1.7714453827911633e+01 1.5782394577892546e+01 2.5888828687384894e+01 0 1 0
2554 1 1.9256394852384137e+01 1.7312450837751193e+01 2.1985556220182850e+01 0 0 0
2629 1 7.3661107721820684e+00 7.1495717454693963e+00 1.0798732017332679e+01 0 0 0
2305 1 7.7173789332769474e+00 1.6746696041653051e+00 3.6672464914367717e+00 0 0 0
443 2 8.6451168548779975e+00 6.3942176301642970e+00 1.0198484655647322e+00 0 0 0
829 1 1.1975228987938895e+01 2.7040367869106529e+01 1.0655323265241968e+01 0 0 0
2375 2 1.1910504572816139e+01 2.8951650811267342e+01 6.3554482322692731e+00 0 0 1
994 1 4.8825265792296042e+00 1.1203595202918468e+01 1.1400236060321751e+00 0 1 0
2641 1 7.2918794238633939e+00 4.5393672002192673e+00 7.8412019242879474e+00 0 0 1
897 2 2.0749369985973711e+01 2.9301418260490085e+01 2.0364124788361018e+01 0 0 -1
318 2 2.1781629497456901e+01 2.5359353000247808e+01 2.4058278120333945e+01 0 -1 -1
725 2 5.1227841328280661e+00 2.9315107925419497e+00 5.0794968967343399e+00 0 0 1
2456 2 1.5667675722526578e+01 1.9621978704679432e+01 5.5831193574635041e-01 0 0 1
1672 1 1.7000858566202055e+01 2.8091134498000116e+01 7.4681251554424293e+00 0 -1 0
1617 2 1.4857998595669759e+01 2.2631674388517133e+01 1.0385384739268128e+01 0 -1 0
1117 1 2.3173488337200713e+01 2.6973056364212482e+01 2.1612384898368802e+01 0 0 -1
1737 2 1.3553027105746272e+01 1.0430082217035352e+01 1.0514766171693850e+01 0 0 0
1909 1 1.4707941529861557e+01 1.1667647991237777e+01 1.3341520482728271e+01 0 0 0
1682 2 5.8479880602573591e+00 5.5851860375520053e+00 7.7162276582957867e+00 0 0 0
368 2 1.8008775574166055e+01 1.1378187476732545e+01 9.4430243543605279e+00 0 0 -1
197 2 1.9765208895516565e+01 2.8170790626569378e+01 9.0231603104219928e+00 0 -1 0
759 2 1.9965589491278880e+01 2.7245008241580926e+01 3.5639801504781192e+00 0 -1 0
2576 2 4.6498341789815321e+00 2.3620300075482632e+00 8.7450775085758412e+00 0 1 0
444 2 9.4007979455220241e+00 7.5337560077612711e+00 3.7238018707511916e-01 0 0 0
2513 2 1.7413194191710620e+01 2.3109153603758770e+01 1.6821948746630007e+01 0 0 0
2480 2 1.9974994649871842e+01 8.0380722258735915e+00 1.5171277671976572e+01 0 1 -1
1681 1 5.1739575147700991e+00 6.0648565874779283e+00 8.2215596350141968e+00 0 0 0
2467 1 9.0037057683230159e+00 1.4749252179791981e+01 3.0705890073038304e+00 0 0 1
1596 2 1.7231629004585219e+01 2.3412181699645934e+01 2.0684141508370207e+01 0 0 0
1621 1 1.1741557924509301e+01 1.3388096354146741e+01 1.9236145782272519e+01 0 0 -1
1622 2 1.2357631944091271e+01 1.3800430433754734e+01 1.8644896643274734e+01 0 0 -1
1151 2 1.5678254926674793e+01 2.2029446161455038e+01 1.9573378199949541e+01 0 0 0
1691 2 1.2345805840428627e+01 2.2964390819776160e+01 2.4083933013167735e+00 0 -1 1
316 1 2.1735973057473771e+01 2.6317843223669826e+01 2.3805745083196530e+01 0 -1 -1
2612 2 1.7639501224554063e+01 2.5900387489809052e+01 7.5954332392035884e+00 0 0 1
2491 1 1.1351135689894020e+01 2.1235740392766665e+01 2.3832415314216711e+00 0 0 1
247 1 2.5554551313603797e+00 6.1744997077381587e+00 7.4053653038366170e+00 0 0 0
1110 2 1.1838589909449531e+01 1.0237935634522920e+01 1.5193932818700862e+01 0 0 0
1876 1 2.1966798973930832e+01 3.3284909597683004e+01 2.0076325547596007e+01 0 -1 0
2563 1 7.9453407897048081e+00 1.4796594636861272e+01 5.0204890930762480e-01 0 1 0
2630 2 6.9111722142472765e+00 6.2805181631912266e+00 1.0785799299853661e+01 0 0 0
216 2 1.7452926088730567e+01 2.6891079523801338e+01 1.2654352390866180e+01 0 0 0
819 2 2.0247213936400573e+01 3.2498999852278658e+01 1.7022950638036864e+01 0 0 -1
373 1 6.0811231993407073e+00 7.5130990012093655e+00 4.2003563858100152e+00 0 0 0
1049 2 1.2667032220014878e+01 2.0585369840391571e+01 3.1085202915031522e+00 0 0 0
2512 1 1.7770305004424788e+01 2.3188714234388250e+01 1.7714695181515605e+01 0 0 0
214 1 1.7515098007347650e+01 2.6249728669702968e+01 1.1947843011475438e+01 0 0 0
1900 1 1.1808681283308829e+01 9.2947654086765112e+00 2.4465372662001261e+01 0 0 0
375 2 6.4075971270675502e+00 6.6597113004518258e+00 4.5676665868522353e+00 0 0 0
1668 2 5.0954734161853850e+00 1.2763890639700657e+01 4.2769619293545214e-01 0 0 1
2439 2 6.9207495304688216e+00 1.2596706713048572e+01 2.9377051607602835e+00 0 1 0
189 2 1.6436456524866859e+01 2.1607792423472205e+01 8.8975120054783989e+00 0 0 0
844 1 1.5822687426168397e+01 1.8423728698628956e+01 2.3487802822992634e+01 0 0 -1
187 1 1.5707986365243620e+01 2.1043638651119601e+01 9.1794399673374798e+00 0 0 0
218 2 9.1493459235422421e+00 2.1904403675988160e+01 1.0167273832333070e+01 0 -1 0
314 2 1.5291831856637472e+01 1.9168122225139840e+01 1.7410520507339420e+01 0 0 -1
2602 1 1.8275527502174661e+01 1.5669773361118898e+01 2.5086766824475117e+01 0 1 0
1548 2 1.3249286567033751e+01 1.6415440531379524e+01 2.5374216385728889e+01 0 1 0
1560 2 1.1611556695069414e+01 2.7472386169889418e+01 4.4144613392443549e-01 0 0 1
302 2 2.2211799594895997e+01 1.2122244572656099e+01 1.5843578175113894e+01 0 0 -1
271 1 1.1524797069659115e+01 1.4313653783114653e+01 2.1657260834310886e+01 0 0 0
2469 2 9.9316805431232176e+00 1.4887812818307328e+01 3.2592430555742453e+00 0 0 1
1657 1 1.8038977571320622e+01 2.6125339469553339e+01 1.8479999632990221e+01 0 -1 0
385 1 1.9309252541061838e+01 1.8060896386615624e+01 2.6104154950578149e+01 0 0 -1
154 1 1.7004125804351503e+01 3.0766598924359194e+01 1.0330777482333705e+01 0 -1 0
29 2 1.8232874552717259e+01 2.3307215802911191e+01 1.2462692402813408e+01 0 0 0
1152 2 1.7104045647645695e+01 2.2261435395570729e+01 1.8925720384345702e+01 0 0 0
625 1 1.2083387650533679e+01 5.7636399709402637e+00 2.7638458766645524e-01 0 0 0
1878 2 2.1860840765317796e+01 3.2926319162857119e+01 1.9190882349790790e+01 0 -1 0
2437 1 7.7814113457115717e+00 1.2177830377891334e+01 2.7235878423786613e+00 0 1 0
1615 1 1.5111204348357273e+01 2.3409767614099518e+01 1.0936838706624917e+01 0 -1 0
920 2 2.4083241711956422e+01 2.1777979983098405e+01 2.1374199293347321e+01 0 0 -1
284 2 2.4504594445530007e+01 3.0428282473721314e+01 1.8907326620653745e+01 0 0 -1
871 1 1.1757612452269797e+01 1.3973236681442387e+01 1.5287034964621743e+01 0 0 0
820 1 8.4964525756506717e+00 1.8534871251208301e+01 2.4055081492193433e+00 0 0 0
2670 2 2.1744283868153168e+01 2.4361579825118987e+01 1.1797838032392709e+01 0 0 0
117 2 2.1910455055398675e+01 2.2277659951623509e+01 2.5216358784204122e+01 0 0 -1
2433 2 1.5038969160727518e+01 2.8817055018135694e+01 1.9276427532926384e+01 0 0 0
2492 2 1.0638964589058673e+01 2.1447503589701565e+01 2.9959645286520762e+00 0 0 1
1085 2 1.3033907251468307e+01 1.8586422494113975e+01 4.9671448032650609e+00 0 0 0
848 2 1.2550348011796048e+01 1.6922956194125867e+01 9.9143415378395652e+00 0 0 -1
273 2 1.1820166952765746e+01 1.3978477813754395e+01 2.0828525161230694e+01 0 0 0
1084 1 1.3545412491992451e+01 1.8295112812905941e+01 5.7484865527883304e+00 0 0 0
1910 2 1.4307637341526235e+01 1.1138363926523885e+01 1.2587948519066597e+01 0 0 0
1087 1 2.0650262936930300e+01 2.8348764195230952e+01 2.7009384719863899e+01 0 0 -1
345 2 3.1726827579317352e+00 1.1373295722496074e+01 1.3180713685713989e+00 0 0 0
196 1 1.9015648979496746e+01 2.8041042241035576e+01 9.6068398872110983e+00 0 -1 0
777 2 1.1961668580962119e+01 2.3061379471498995e+01 5.5475672166078915e+00 0 0 0
308 2 2.3635310170400185e+01 3.1997193758725512e+01 2.4590925256023105e+01 0 0 -1
309 2 2.3663126473181595e+01 3.1012525747885483e+01 2.5722307525148175e+01 0 0 -1
3003 2 1.0118030332557741e+01 8.6207879690375169e+00 4.2847461321961751e+00 0 1 0
1809 2 1.4907065202154651e+01 1.3348631659989273e+01 1.2998294092999089e+01 0 0 0
880 1 1.4262964605703804e+01 2.0331942072816126e+01 2.0660651310752030e+01 0 0 0
315 2 1.6050989981173441e+01 2.0154730948948650e+01 1.8127838109963953e+01 0 0 -1
283 1 2.4674185142945628e+01 3.0454286633432517e+01 1.9891916498234895e+01 0 0 -1
386 2 1.8464331132278421e+01 1.8535111366063401e+01 2.5825043508539032e+01 0 0 -1
2376 2 1.3255382546903535e+01 2.9143912816168097e+01 7.1237717113636041e+00 0 0 1
726 2 4.2268081107173412e+00 3.8627885724997340e+00 5.9095906133862064e+00 0 0 1
1545 2 8.0329766930464075e+00 8.6229111483402647e+00 1.4015241520884199e+01 0 0 0