LAMMPS data file via write_data, version 15 Apr 2020, timestep = 14200000

6144 atoms
2 atom types

1.6801462697436875e-01 5.9800274504188735e+01 xlo xhi
0.0000000000000000e+00 2.8071352453175141e+01 ylo yhi
0.0000000000000000e+00 2.7131248366756417e+01 zlo zhi
1.0152563162050086e+01 1.0177190780552877e+01 7.1133449759119607e+00 xy xz yz

Masses

1 16
2 2

Atoms # atomic

1595 2 2.0460453641674484e+01 1.4832542527860230e+01 1.7501161492295239e+01 0 0 0
42 2 1.5927711106227253e+01 1.2682295004484478e+01 2.1218984758335817e+00 0 0 0
2349 2 1.5222195905707586e+01 8.5867988531907535e+00 2.3476743975479870e+01 0 1 0
1863 2 5.9258825515010010e+00 8.6827822663541152e+00 5.1887088898400631e+00 0 0 0
2600 2 2.1409642157595879e+01 2.6069012252890982e+01 3.9694328343083285e+00 0 -1 0
2525 2 1.6773892585481175e+01 1.2340221314456940e+01 1.0924259727474274e+01 0 1 0
25 1 1.1297928512153431e+01 8.0331882461743227e+00 6.8128358347201772e+00 0 0 -1
1625 2 1.7791037586789855e+01 1.7025832717506312e+01 2.5815053657894616e+01 0 0 0
20 2 1.9299908182953033e+01 2.4581851272830246e+01 3.8881671213962088e+00 0 -1 0
886 1 1.7276329681376595e+01 2.1999368059227020e+01 1.4973126723490699e+01 0 1 -1
1633 1 1.6738986426995794e+01 1.4316182464899853e+01 2.5914279361213257e+01 0 0 0
1806 2 1.3319635132231163e+01 2.1102985355131473e+01 1.4552627190623889e+01 0 0 0
2443 1 2.3351424230069789e+01 2.9033913071527014e+01 2.3457726951056156e+01 0 1 -1
358 1 1.9560761188623651e+01 2.6769545272371388e+01 2.5884289778597186e+01 0 0 0
684 2 2.0077800636789391e+01 1.5648891027494555e+01 2.5545898096172618e+01 0 0 -1
279 2 1.0394219438847788e+01 4.9458436323828572e+00 1.4991892993008458e+01 0 0 0
1670 2 7.1010882034303204e+00 6.1463699656765485e+00 4.9372777129610395e+00 0 0 0
1634 2 1.6515137099817938e+01 1.5232339719258251e+01 2.6249249242699861e+01 0 0 0
118 1 2.8709623043484214e+01 2.3454605874189291e+01 2.6814431514163626e+01 0 0 0
270 2 2.1409178224055331e+01 1.4855086327378597e+01 1.4228032061844262e+01 0 -1 -1
2631 2 2.2455512477929993e+01 7.6484769395198446e+00 2.4558042142638488e+01 0 0 -1
1916 2 1.3157925950946520e+01 1.8632461667445757e+01 6.0112672489135299e+00 0 0 0
611 2 1.7509616562204187e+01 1.6805967684272268e+01 2.7771845975200264e+00 0 0 0
1709 2 2.4693559459102062e+01 3.2024152233302587e+01 2.2933393479622882e+01 0 -1 0
487 1 1.3438849575029089e+01 1.4778204922592032e+01 1.1241099023038577e+00 0 0 0
5807 2 1.3564833344115195e+01 2.6809732352926119e+01 1.9851949033654683e+00 1 0 1
1587 2 1.2841373930817648e+01 1.2659812801391407e+01 1.6308345790555553e+01 0 0 0
1586 2 1.3030959080208039e+01 1.2354202699879295e+01 1.4819765972583854e+01 0 0 0
5199 2 6.1119045219172756e+00 4.9467480133936119e+00 1.4191393411771546e+01 1 0 0
2633 2 1.0782864337483854e+01 4.1077776871797269e+00 7.4934641095928689e-01 0 0 1
2518 1 2.7410313205089746e+01 2.3666014464731781e+01 2.1788361580037240e+01 0 0 0
1871 2 6.1384222822076353e+00 1.4653967756982365e+00 5.4504938208206672e+00 0 1 0
108 2 1.6322696417065153e+01 2.1318921913864944e+01 7.4750874571286525e+00 0 0 0
1275 2 8.7092105940621227e+00 5.6387460545845247e+00 3.6600809273976931e+00 0 0 0
1880 2 1.1193388770128699e+01 9.5333186311566518e+00 2.2395813690894066e+01 0 0 0
2574 2 1.4979159141051511e+01 8.4537273017861221e+00 1.0783741107308774e+01 0 1 0
1708 1 2.4409237792275512e+01 3.2552000128098896e+01 2.3747743474102460e+01 0 -1 0
27 2 1.0518251680358777e+01 8.6022931562060645e+00 6.5799250714764570e+00 0 0 -1
907 1 1.4535659891684318e+01 9.8086061691566506e+00 2.1881223289796157e+01 0 1 -1
585 2 1.1508696288532390e+01 8.6828311516335148e+00 1.5409525493381501e+01 0 0 0
2045 2 2.6381759638923668e+01 2.6803260006189344e+01 1.2710233938217289e+01 0 -1 1
1901 2 1.4730133385794295e+01 9.0408229371892439e+00 1.6093374284089894e+01 0 0 0
174 2 1.6702994169420091e+01 1.0310275347945296e+01 1.9085770312247611e+01 0 0 -1
998 2 1.7387829522276409e+01 5.4447938107846836e+00 2.4134047576429918e+00 0 1 0
1700 2 4.5852710248789004e+00 8.7840979255458755e+00 2.2312395152534797e-01 0 0 1
2382 2 1.4570302572969769e+01 1.8286844804702010e+01 1.6024030503155824e+01 0 0 0
1203 2 2.5699863084168186e+01 1.4350641028679547e+01 2.2779725845804542e+01 0 1 -1
1781 2 2.0809864560390579e+01 1.9646864615229987e+01 1.8559911087956802e+01 0 -1 0
1710 2 2.4230056517028416e+01 3.3453290400878565e+01 2.3373889775477810e+01 0 -1 0
112 1 1.6631915550134341e+01 1.4748977847599123e+01 5.9406295691243933e+00 0 -1 0
1705 1 1.4571415387256252e+01 1.7981607976452725e+01 1.9457833905124126e+01 0 0 -1
1773 2 2.3001339290045934e+01 2.6706878149141300e+01 1.2865506619386535e+01 0 0 -1
101 2 8.5577873573125824e+00 7.9559016768090114e+00 8.6347141860950103e+00 0 0 0
72 2 1.9997478030124160e+01 9.2318236429984211e+00 7.9179512872062867e+00 0 0 0
36 2 2.5193202242813783e+01 2.8197479003736124e+01 7.5637521033877642e-01 0 -1 0
2329 1 1.9996049333857457e+01 3.0764061806018582e+01 2.6950401302612480e+01 0 0 -1
2360 2 1.1734936833949639e+01 3.6524076198912598e+00 6.7751605915961832e+00 0 0 0
1635 2 1.6053124836243001e+01 1.3715599621279999e+01 2.6144071487326961e+01 0 0 0
30 2 1.9838637594357095e+01 2.8493339816673682e+01 9.0317041456032676e+00 0 0 0
18 2 1.1625583261165719e+01 1.6152352864943893e+01 1.3549419249102858e+01 0 0 0
2659 1 2.0341424871545168e+01 1.1195922264742839e+01 1.0400391548815849e+01 0 0 0
79 1 1.0992223675190385e+01 2.5511100823806348e+01 1.3429538188483030e+00 0 -1 0
896 2 2.4321320402338344e+01 3.0426053031780704e+01 1.8704147178288899e+01 0 0 -1
1474 1 2.2467316714427660e+01 2.1194435717623026e+01 1.1366922673276312e+01 0 0 0
796 1 4.2965572403928594e+00 6.4551601816913031e+00 4.6158133819929708e+00 0 1 0
28 1 1.9490056935567480e+01 2.8820504701095597e+01 9.8776979565738525e+00 0 0 0
1659 2 1.2996581962387381e+01 1.3613733460427738e+01 1.2470566888346097e+01 0 0 0
686 2 1.2445829222691300e+01 1.0362131811019227e+01 5.6001785299944400e+00 0 0 0
1791 2 5.2003958593388111e+00 6.5710662889890070e+00 3.1736226328461230e+00 0 0 1
1274 2 9.7663328353450893e+00 5.5388535721062819e+00 2.5212516700152667e+00 0 0 0
272 2 1.4491113926223887e+01 1.3181355622988534e+01 2.2385008722391156e+01 0 0 0
1669 1 7.2351870368626221e+00 5.3129554566039046e+00 4.4329597398806424e+00 0 0 0
2343 2 1.5440536198060096e+01 1.9018425319009772e+01 2.2183651256730712e+01 0 1 0
1671 2 6.4039939530466388e+00 4.8488569197463818e+00 4.4312564061517392e+00 0 0 0
818 2 1.8418950461224028e+01 2.7247653070054341e+01 4.1384841267469437e+00 0 0 -1
2514 2 1.8420726783422889e+01 3.1674539962689817e+01 1.6028955174572385e+01 0 0 0
293 2 9.2621249899915092e+00 1.2963735488117891e+01 8.6435589125729990e+00 0 0 0
2454 2 9.7594050040970544e+00 1.5792955832676030e+01 8.5125118281666836e+00 0 0 1
2453 2 1.1154364787768861e+01 1.6232624464404452e+01 8.9809592641029123e+00 0 0 1
557 2 1.7022999136748375e+01 2.2978560610777201e+01 2.4459152781548238e-01 0 0 0
856 1 1.9453532473187842e+01 1.6677919539988597e+01 1.2567643514558771e+01 0 -1 0
145 1 9.7608038024649453e+00 7.1736238784484208e+00 1.6881814334991443e+01 0 0 -1
887 2 1.7914469130569323e+01 2.2635983709108867e+01 1.4647891731655829e+01 0 1 -1
1661 2 1.2885858779479150e+01 2.2358822566821150e+01 1.4589327131525840e+00 0 -1 1
57 2 2.1714217488996653e+01 2.2190158019699094e+01 1.5548739118959478e+01 0 -1 -1
794 2 2.3729932287278835e+01 1.5432380895093882e+01 2.6074437814724572e+01 0 0 -1
289 1 2.3394479360534763e+01 1.1690681803581814e+01 1.4651364160391234e+01 0 -1 -1
1917 2 1.4494324358796922e+01 1.7918465950099176e+01 6.1191805159547705e+00 0 0 0
353 2 9.6431348561853518e+00 9.6907376452242904e+00 8.9543578477622141e+00 0 0 0
940 1 1.1624763570422349e+01 1.6715801506556119e+01 1.8396798115268552e+01 0 0 0
835 1 1.8772370890929022e+01 1.3017657390103558e+01 1.0595285225792699e-01 0 1 -1
1811 2 1.6597078194775840e+01 3.0058843139097789e+01 1.3467012238254988e+01 0 0 0
1695 2 1.8756858957713341e+01 1.0766808303290237e+01 1.6223144573966820e+01 0 0 0
1703 2 1.1413725580135253e+01 1.0961605123007287e+01 2.0308588700685160e+01 0 0 0
1909 1 1.7905431749013346e+01 2.5750211052063388e+01 1.5955115334025100e+01 0 -1 0
1258 1 1.7781739569312872e+01 1.8270267275141084e+01 1.1437736716625366e+01 0 0 0
826 1 1.6588141934964156e+01 3.0413102414166737e+01 1.8567845061532264e+01 0 0 0
1032 2 2.1449365329412874e+01 2.8274250937836552e+01 6.3230732050835785e+00 0 -1 0
1127 2 1.5261486322410137e+01 4.5604224433877452e+00 5.9805875525925938e+00 0 0 0
1663 1 1.1169474280316791e+01 1.5095208772035839e+01 1.5187316156536481e+01 0 0 0
2540 2 1.5195230554215854e+01 2.3113035015702831e+01 3.9818304172678061e+00 0 0 0
6 2 2.0013965721778760e+01 1.7889305200331169e+01 2.2873725975440774e+01 0 -1 0
908 2 1.4007647325337963e+01 1.0563361160416671e+01 2.2070184928060346e+01 0 1 -1
2535 2 1.8845407396213901e+01 1.4765570638377925e+01 2.4063935933597580e+01 0 1 -1
917 2 1.3910592994116030e+01 1.3665672319686678e+01 2.5962325184014130e+01 0 1 -1
313 1 1.8674083513883222e+01 1.1283180495246201e+01 6.4558445692280282e+00 0 0 -1
1304 2 2.1930882311597035e+01 1.3065145681128229e+01 1.8664706775154791e+01 0 0 0
300 2 1.2545523220824219e+01 1.8496402314858329e+01 9.6756164265949831e+00 0 0 0
1585 1 1.2667908140044174e+01 1.1973306583636035e+01 1.5638654574620228e+01 0 0 0
1603 1 2.2867056430486674e+01 2.7459784539757411e+01 1.8254801229842723e+01 0 0 0
1913 2 1.8263922829311014e+01 2.8245256446132704e+01 2.5464495636206760e+01 0 0 0
2489 2 2.1457708094694745e+01 1.6613611541656876e+01 3.7005435915371501e+00 0 0 1
2314 1 2.2045404157567919e+01 2.0038143567914521e+01 3.3099293040221811e+00 0 0 1
2987 2 1.1718749139331425e+01 1.2134801145084111e+01 7.2431864710569061e+00 0 1 1
1149 2 2.6404003986284994e+01 1.8005439326494034e+01 2.3847848189629989e+01 0 0 -1
357 2 1.7218131286008671e+01 2.5791870272538553e+01 2.4603133106070050e+01 0 0 -1
949 1 1.6824139587531313e+01 2.4978042724060362e+01 1.2559469346624388e+01 0 -1 0
433 1 1.8000698971577712e+01 2.3839356439146002e+01 4.7556784446283125e+00 0 -1 -1
1059 2 1.2399294631068235e+01 8.3233939585532184e+00 1.9207415413411681e+01 0 1 -1
2621 2 2.4650359852538422e+01 1.3265714348393770e+01 1.7675337164019840e+01 0 0 0
1249 1 1.2456910663839956e+01 3.7457712460226800e+00 3.3231371151740192e+00 0 1 0
2355 2 1.8363681494347198e+01 2.0911399160345557e+01 2.1669130059386937e+01 0 0 0
912 2 1.8002978408695999e+01 1.0164158837155110e+01 8.0049483805347901e+00 0 1 0
1113 2 1.5686312072558081e+01 2.7773507608822978e+01 1.4034706644416888e+01 0 0 0
1753 1 2.4977897047288316e+01 2.2198697827748770e+01 1.4908876468619082e+01 0 -1 0
115 1 1.9966560444307454e+01 8.9833567434829931e+00 2.3811570981361552e+01 0 1 -1
1468 1 2.6668404321859320e+01 2.8747610729087860e+01 9.8416974029727111e+00 0 0 0
331 1 2.5626726484246522e+01 2.0070306625079802e+01 1.6704759485727688e+01 0 0 0
2460 2 2.1953763308346371e+01 1.8361555217120689e+01 1.5803733248199894e+01 0 0 0
888 2 1.7022898860878492e+01 2.1457795384332353e+01 1.4201310950444368e+01 0 1 -1
1699 1 1.5531875390269800e+01 1.6400681747396774e+01 2.6946198591586622e+01 0 0 0
299 2 1.1978161420032549e+01 1.9260779641864421e+01 1.0917177986574158e+01 0 0 0
721 1 1.4710297314110134e+01 4.6543759348132880e+00 1.5019756694976862e+00 0 0 0
974 2 2.0429093971750447e+01 2.2709971584818152e+01 2.3262106959509349e+01 0 0 0
105 2 1.0294596240287254e+01 1.1516916160010984e+01 9.6493369277213148e+00 0 0 0
852 2 9.5053645474399779e+00 1.2479399308841991e+01 1.4028016235720978e+01 0 1 0
1515 2 1.4532956649900772e+01 1.6477987819251268e+01 1.8448518796557892e+01 0 0 0
745 1 2.3143419035106806e+01 2.4322997662424942e+01 8.8936814719149080e+00 0 -1 0
1546 1 1.8759802352356253e+01 1.6377084969636950e+01 2.6971489635534120e+01 0 1 0
1299 2 1.6869760186638175e+01 4.0937088480025894e+00 1.1348044994855922e+01 0 0 -1
588 2 1.0584806782713114e+01 9.0483746775291092e+00 2.6550775724553111e+00 0 0 0
909 2 1.5265746202188193e+01 1.0206703779907530e+01 2.1370385141031260e+01 0 1 -1
1874 2 1.3525969490070999e+01 1.7287440457936111e+01 1.2293120916701790e+01 0 -1 0
2354 2 1.7311225186716918e+01 2.0067936298553910e+01 2.2637804580256741e+01 0 0 0
2326 1 1.9046657217152536e+01 5.6322675678607581e+00 1.9359793811767975e+01 0 1 0
1257 2 2.1098312608636665e+01 2.3054441832125264e+01 4.4907638767042979e-01 0 0 1
1273 1 9.5726890785927061e+00 5.9953938202395305e+00 3.3498268876208437e+00 0 0 0
128 2 7.8667893426894659e+00 5.7419310495558200e+00 1.3267999560142952e+01 0 1 0
1780 1 2.0521424904499433e+01 2.0506080359823770e+01 1.8239761600075980e+01 0 -1 0
754 1 1.3707247885994429e+01 2.5405445348115208e+01 1.4788774510566340e+01 0 0 0
1514 2 1.5495010526830347e+01 1.5216964502714374e+01 1.8830449677557326e+01 0 0 0
775 1 2.0731360193411675e+01 3.3049849447741700e+01 2.2577798281657735e+01 0 0 -1
352 1 1.0489834385201226e+01 1.0183363925932859e+01 8.7666035091005945e+00 0 0 0
1808 2 1.3298686220065136e+01 1.4939107007682267e+01 1.7576694949548269e+01 0 0 0
885 2 1.7069251644149148e+01 7.2499961572325704e+00 2.0810290068175920e+01 0 1 -1
911 2 1.7860824922485278e+01 1.1195355501920588e+01 9.2261338524176022e+00 0 1 0
2467 1 1.2676191096867063e+01 1.7071371660004942e+01 8.8687192730854818e+00 0 0 1
2668 1 2.2175698103765001e+01 1.5879008108655615e+01 1.8111865050659972e+01 0 1 -1
343 1 5.8068558386875937e+00 1.1240523303736378e+01 1.5533530356339305e+00 0 0 0
746 2 2.3448126992410639e+01 2.4482880139610064e+01 7.9845899249140517e+00 0 -1 0
2330 2 2.0812789018093078e+01 3.0275738775816190e+01 2.6695103836119699e+01 0 0 -1
2380 1 1.5431344691279953e+01 1.8709807988791336e+01 1.5922893740808549e+01 0 0 0
294 2 7.9753309787607085e+00 1.3919501535596600e+01 8.4102348986311366e+00 0 0 0
2532 2 2.0855719174546945e+01 2.3914953721968388e+01 1.7922107845437385e+01 0 0 0
19 1 2.0028099546979803e+01 2.4621075326761016e+01 3.2613195696778483e+00 0 -1 0
100 1 8.0751153344025504e+00 8.7361438082874514e+00 8.9111447635281866e+00 0 0 0
2623 1 1.3685583386968812e+01 1.6585274920205613e+01 2.1567096492687003e+01 0 0 0
941 2 1.1743444163372310e+01 1.5867569175466993e+01 1.8853171942084554e+01 0 0 0
2323 1 1.0197212830079923e+01 1.5202671991331755e+01 1.9866766597072474e+00 0 1 1
2397 2 1.9928020954593137e+01 1.4148211649267871e+01 1.0824259817599282e+01 0 1 0
98 2 1.4191466392599963e+01 2.0058760440755542e+01 7.5221738829716527e+00 0 0 0
2283 2 1.3168884692931112e+01 1.5658390024055780e+01 2.5861094523948989e+00 0 -1 0
995 2 8.2867332112070606e+00 1.1335118853077894e+01 3.8204068811970848e+00 0 1 0
263 2 9.8375389449811337e+00 3.2747924807806212e+00 5.6488292883861755e+00 0 1 -1
2361 2 1.3156693357222718e+01 3.5613201598555921e+00 6.0751485093397903e+00 0 0 0
2432 2 1.7145456193764325e+01 2.9264955456867551e+01 1.9687850511280917e+01 0 0 0
1513 1 1.4893385162200955e+01 1.5633280947938403e+01 1.8141667937878445e+01 0 0 0
1859 2 1.3606085830660842e+01 1.5805371266329159e+01 2.4541233793881261e+01 0 0 0
2291 2 1.7671020629860102e+01 1.1903921629022696e+01 9.2815167622895256e-01 0 0 1
1547 2 8.2010200566199050e+00 8.7567628756695068e+00 6.2276533171590487e-01 0 1 1
2353 1 1.8002341319959463e+01 2.0760914061297242e+01 2.2535361087255385e+01 0 0 0
1972 1 1.7175926670577880e+01 7.0984002271649400e+00 1.1400862329082250e+01 0 0 0
2528 2 2.0808819775569859e+01 3.3078079471098683e+01 1.9346425453017819e+01 0 0 -1
2818 1 1.0993410869585723e+01 8.0339179219096586e+00 1.3744027310898574e+00 0 1 1
2288 2 6.3795610016117008e+00 1.2415439401741235e+01 1.1304027334398814e-01 0 0 1
847 1 2.4710700753052958e+01 1.7011005364101447e+01 2.1716139402330594e+01 0 0 -2
298 1 1.2463913192642213e+01 1.9418696224285355e+01 1.0092873756010670e+01 0 0 0
1707 2 1.5269174463838432e+01 1.8584749201303449e+01 1.9415380674657634e+01 0 0 -1
1013 2 2.4046110370883618e+01 2.8185520293217827e+01 1.7329075382180093e+01 0 0 0
612 2 1.6899586015557677e+01 1.7449140917949361e+01 4.0030698687413571e+00 0 0 0
1675 1 1.4101427783446592e+01 1.3390923596107179e+01 4.8612566466287461e+00 0 0 0
1854 2 3.0206343664511646e+01 3.0754388505031539e+01 2.2584071703641410e+01 0 -1 -1
883 1 1.7747994901095176e+01 7.8026308029839475e+00 2.0503756597237441e+01 0 1 -1
248 2 6.5709999941352972e+00 5.9975575749919212e+00 9.2079788426337625e+00 0 0 0
1915 1 1.3805984199182060e+01 1.8381120728454398e+01 6.6991736782907232e+00 0 0 0
314 2 1.8013292336398614e+01 1.1494263994416414e+01 5.7246960228938315e+00 0 0 -1
842 2 1.6204781794912336e+01 2.2560341842797698e+01 2.4649867049609728e+01 0 0 -1
1122 2 1.7708650121895076e+01 2.1897929518466260e+01 1.0534894324302016e+01 0 0 -1
1084 1 1.2633131221278150e+01 2.4587891279395439e+01 3.2286971919194296e+00 0 0 0
132 2 7.4307113585073363e+00 4.1205340022431935e-01 7.8256804574800098e-01 0 0 0
1005 2 2.3688907269683376e+01 2.2658973364271109e+01 2.4587027405577626e+01 0 1 -1
354 2 1.1130992070841957e+01 9.5244989008335068e+00 8.9915279571004803e+00 0 0 0
156 2 7.6074142459420049e+00 4.4312951868946744e+00 9.7634523259975303e+00 0 0 0
788 2 2.3974617774060608e+01 2.2806404958460988e+01 9.3824356202685983e+00 0 0 0
1616 2 1.8565010601701527e+01 2.3352315532840763e+01 1.7420662789381918e+01 0 -1 0
1823 2 2.4490024944659645e+01 2.3819433524291398e+01 1.8332608016564382e+01 0 -1 0
1081 1 1.6320179087473640e+01 1.4691117614926767e+01 2.0105235033196440e+01 0 0 -1
1594 1 1.9721519634470980e+01 1.4255694538221434e+01 1.7203723760752293e+01 0 0 0
2445 2 2.4062246883891039e+01 2.8978441740927593e+01 2.4064203320973746e+01 0 1 -1
1128 2 1.6327592472043367e+01 4.7303403195052773e+00 7.0221020692028544e+00 0 0 0
1150 1 1.7393464769494436e+01 2.8241018214476604e+01 1.6913521858875150e+01 0 0 0
1841 2 2.1468154812995422e+01 1.6794678879476301e+01 2.2312790612592515e+01 0 0 0
1025 2 2.3130640159762965e+01 1.4964429224940448e+01 1.0788111870643769e+01 0 0 0
1864 1 9.7367275483391431e+00 7.7298059744925265e+00 2.0078396399847250e+01 0 0 0
997 1 1.6924574730189722e+01 5.9022180218181264e+00 3.2338773389997408e+00 0 1 0
1279 1 1.6031063560762881e+01 1.8764025327698175e+01 1.3240110171661597e+00 0 1 -1
824 2 1.4359283501264535e+01 1.2945373526314738e+01 1.8290031796771519e+01 0 1 -1
1762 1 1.5004664882413604e+01 5.4317571308354307e+00 1.0212849149754039e+01 0 0 0
2556 2 1.6786250092996099e+01 6.9575483069288548e+00 1.7419335607345896e+01 0 1 0
462 2 2.4203347022966582e+01 2.3725904224688790e+01 2.2301559393516275e+01 0 0 -1
1870 1 6.7151995872378745e+00 2.2274160492721733e+00 5.6457399109773325e+00 0 1 0
1662 2 1.3326055382142316e+01 2.1406651084771511e+01 2.5202107114610595e+00 0 -1 1
868 1 1.0478279422602157e+01 1.8508634932132583e+01 1.1640140504111075e+01 0 0 0
1736 2 1.6222463977358387e+01 1.3224816877135135e+01 8.9925475647591639e+00 0 0 0
376 1 2.0973872382995211e+01 2.8995268603246849e+01 2.0186238116964997e+01 0 -1 0
1979 2 2.7999683698146754e+01 1.9563430974143042e+01 2.1279814020178183e+01 0 0 0
723 2 1.4045006112684671e+01 5.2054056241192548e+00 1.8856536530850749e+00 0 0 0
992 2 1.7562717256117406e+01 2.0104510592656037e+01 1.7540831212552035e+01 0 0 -1
2555 2 1.8192234967680868e+01 7.6850159052058071e+00 1.7423149014945619e+01 0 1 0
460 1 2.3552254609820167e+01 2.4078167966478585e+01 2.1655054238686176e+01 0 0 -1
1801 1 1.4483255093843797e+01 2.2949138445459536e+01 5.5574970609671652e+00 0 -1 0
1862 2 6.1719757636300114e+00 9.8525232395322391e+00 4.3603756173368060e+00 0 0 0
242 2 6.8641731678923987e+00 1.0763962045097660e+01 7.4282056827143794e+00 0 0 0
2334 2 3.2773005966777390e+01 3.3578846611360071e+01 2.1193196177710597e+01 0 0 0
1824 2 2.3940727365444459e+01 2.2637605181459723e+01 1.7716210289001822e+01 0 -1 0
2444 2 2.3360118791071763e+01 2.8232429952703473e+01 2.2921491475479158e+01 0 1 -1
104 2 9.5411125679485309e+00 1.2456094990964750e+01 1.0730319296067419e+01 0 0 0
2642 2 1.9240164441640228e+01 2.3547351878207788e+01 8.3229559191875691e+00 0 -1 1
2307 2 9.2193531452062381e+00 5.7506180242571103e+00 7.4309956286927781e+00 0 0 0
1908 2 2.2670581268149821e+01 2.9389233773128911e+01 9.7585616879205759e+00 0 -1 1
1088 2 2.0961819023836142e+01 2.8012482784392915e+01 2.5760811675683691e+01 0 0 -1
1879 1 1.0441571035699827e+01 9.7192017769171635e+00 2.1734315023239674e+01 0 0 0
825 2 1.3278012441624632e+01 1.2112904981249580e+01 1.9328921281281456e+01 0 1 -1
2306 2 1.0378438379267486e+01 6.7557281157827465e+00 7.7220260394005971e+00 0 0 0
2553 2 2.2833886283260767e+01 1.4278922999574142e+01 2.2916127715983563e+01 0 0 -1
1089 2 2.1920390504267608e+01 2.8720350464269512e+01 2.4863151313917538e+01 0 0 -1
3030 2 1.9665856908364177e+01 1.0999874844802013e+01 2.5784591206000567e+01 0 1 0
5808 2 1.2612799883349350e+01 2.8144021869608562e+01 1.9282324515945051e+00 1 0 1
158 2 2.3515669175375226e+01 2.9480733397876801e+01 5.3939101041679995e+00 0 -1 -1
830 2 1.5411510824338631e+01 2.6197333639563610e+01 3.7290188028700904e+00 0 0 0
1658 2 1.4246597446794972e+01 1.3937361227592863e+01 1.3597841655679236e+01 0 0 0
1878 2 2.1121480094258494e+01 1.5643711609465656e+01 9.4773825860306591e+00 0 -1 1
2604 2 1.5542314535921722e+01 1.1194496769719045e+01 2.4470301017069172e+01 0 1 0
802 1 1.6203415932177073e+01 2.5088746947932009e+01 6.4550116487308973e+00 0 0 0
89 2 2.3949166081134237e+01 2.6281445193680732e+01 6.8584934359385539e+00 0 -1 -1
2644 1 1.6717596169284242e+01 1.9838000018322415e+01 1.9057526591374334e+01 0 0 0
1814 2 2.1507471453049572e+01 2.3726819943462033e+01 8.9992298825444657e+00 0 0 0
198 2 2.0496514437532788e+01 5.4420082821270030e+00 1.6247142897666578e+01 0 0 0
1735 1 1.5519337921331331e+01 1.3545577030196117e+01 8.3886983389475844e+00 0 0 0
2646 2 1.7402706000128255e+01 1.9514816672053694e+01 1.9634026664106315e+01 0 0 0
892 1 1.8009171227369297e+01 4.3649098959427173e+00 9.8672230109683365e+00 0 0 0
895 1 2.3976080523054591e+01 3.1127774811775058e+01 1.8098678812782204e+01 0 0 -1
2603 2 1.4506309934382013e+01 1.1620877124726714e+01 2.5503040849570066e+01 0 1 0
2554 1 1.7568500241012277e+01 7.1407397420610783e+00 1.6907134776366696e+01 0 1 0
2648 2 1.4589498836142219e+01 6.1167070014576765e+00 4.8994816513102188e+00 0 1 0
2305 1 9.5103599416790399e+00 6.4504882973558866e+00 8.0675391090579165e+00 0 0 0
1553 2 2.5670106564709219e+01 2.6103193807477556e+01 1.4898949776082299e+01 0 -1 1
829 1 1.4627819448751096e+01 2.5843979456166206e+01 4.2403018398591676e+00 0 0 0
1825 1 7.8406592292028812e+00 6.3726528312767936e+00 1.8348294821388041e+01 0 0 0
994 1 7.5671526759125598e+00 1.0706565090996015e+01 3.5516220775992862e+00 0 1 0
2641 1 1.8490657477721747e+01 2.3949391778355253e+01 7.8082152516693561e+00 0 -1 1
897 2 2.3164106428939750e+01 3.0731747502984181e+01 1.7730762957478440e+01 0 0 -1
318 2 9.4432608305078478e+00 2.2929923877774820e+00 4.5060926200198947e-01 0 0 0
725 2 1.8132414427825182e+01 2.9703346955641930e+01 6.9765216508384063e+00 0 -1 1
5806 1 1.3502808173638815e+01 2.7741462437763353e+01 2.2386253401870198e+00 1 0 1
1672 1 1.0734135197500386e+01 6.1688268605426684e+00 1.3465728172294847e+01 0 0 0
1617 2 1.9036489565374758e+01 2.4453965574096518e+01 1.6537737623536550e+01 0 -1 0
1994 2 2.0774345603302237e+01 2.6576709011358748e+01 7.2727402748517047e+00 0 -1 0
1737 2 1.5241477499675593e+01 1.2748763829528860e+01 7.9081732103264750e+00 0 0 0
1538 2 1.3406789542070287e+01 1.3982867987890934e+01 1.9984762374068399e+01 0 0 0
1682 2 7.8453485132199052e+00 3.5650277570371953e+00 1.2791147124801611e+01 0 0 0
1305 2 2.0820440060757065e+01 1.2332664311459546e+01 1.9538404994781249e+01 0 0 0
2650 1 1.6557501933883096e+01 9.5409089847021367e+00 5.6179778629439205e+00 0 0 1
925 1 2.4138487039763046e+01 2.5744123314674809e+01 2.4931380991841959e+01 0 0 0
983 2 1.9300390786447196e+01 6.2514273399616318e+00 2.2541802186489619e+01 0 1 -1
1105 1 8.4797587242461052e+00 1.8423739729254056e+01 1.2380446585868625e+00 0 0 0
804 2 1.6938009052488265e+01 2.4766109107955284e+01 5.8928861352568527e+00 0 0 0
1119 2 1.5183547837673958e+01 9.6097647473680912e+00 3.0944286457066399e+00 0 0 0
1681 1 8.5295224976909338e+00 4.2487761099521544e+00 1.2632274818257249e+01 0 0 0
2325 2 1.0910050123507318e+01 1.4640031076573473e+01 2.3500977050223688e+00 0 1 1
1596 2 1.9394046713124013e+01 1.4728494648902601e+01 1.6373359367881420e+01 0 0 0
1621 1 1.5716843870004460e+01 8.6012961992054144e+00 9.2239325875568206e+00 0 0 -1
1622 2 1.4982036116399346e+01 8.8989352444682197e+00 8.6380122460259354e+00 0 0 -1
777 2 2.1457691708479850e+01 3.3765183093266444e+01 2.2627727742957926e+01 0 0 -1
1691 2 1.5509177266712236e+01 2.5814535677352719e+01 9.7010303284532651e-01 0 -1 1
316 1 2.0377257528071205e+01 9.8565807702550963e+00 2.7095176819515071e+01 0 0 -1
857 2 1.9544935077850731e+01 1.5864580583918677e+01 1.2063407714422864e+01 0 -1 0
2491 1 2.0322942758503366e+01 2.7452761733597555e+01 2.2424305682928438e+01 0 0 0
2813 2 3.0011445207849690e+01 2.4688389503750642e+01 2.2856358675394009e+01 0 0 0
1110 2 1.1263883104080588e+01 1.0869033559427955e+01 1.6026365209381176e+01 0 0 0
3055 1 1.8763949153480013e+01 5.9346676361771511e+00 1.3535604276327192e+01 0 1 0
881 2 2.0652192462212760e+01 2.2705813406580084e+01 5.1667558630740640e+00 0 0 0
1652 2 6.4557827394969483e+00 1.5118014163911344e+01 6.1882230596783094e-01 0 0 1
1798 1 2.5287836372373892e+01 2.3671710505865484e+01 2.7002477742096371e+01 0 -1 1
82 1 1.4464671885611457e+01 1.8367044474514380e+01 2.5154972887884682e+01 0 0 -1
373 1 7.3019191138544102e+00 7.6091479292004571e+00 5.9729815589858557e+00 0 0 0
2396 2 1.9820327101268354e+01 1.3605425917257644e+01 1.2216370778801080e+01 0 1 0
2512 1 1.7826078781536687e+01 3.0955766288412576e+01 1.5924500300119496e+01 0 0 0
1602 2 1.4083089056760937e+01 1.5930367194581116e+01 1.5279269672744809e+01 0 0 0
1900 1 1.4278511548249899e+01 9.4742777183129476e+00 1.6843835516930536e+01 0 0 0
2988 2 1.0824625159151708e+01 1.0888090976240527e+01 7.2344946660931146e+00 0 1 1
1812 2 1.7131691397885568e+01 2.9941158535265501e+01 1.2044811846589578e+01 0 0 0
2439 2 1.4938743566527389e+01 1.8489573185106444e+01 1.0591551830416828e+01 0 1 0
1004 2 2.2252937161499240e+01 2.2187599161228576e+01 2.4507208327895277e+01 0 1 -1
1068 2 2.4305412357745031e+01 2.8435314640164826e+01 2.0451247834286583e+01 0 1 -1
2348 2 1.5466566344153023e+01 7.2572101291799882e+00 2.2867296233815619e+01 0 1 0
117 2 2.0449857406553271e+01 8.1522225182754369e+00 2.3535568363206448e+01 0 1 -1
1861 1 5.4339015105801938e+00 9.3312405823017777e+00 4.6280750069278955e+00 0 0 0
2602 1 1.4749099448762914e+01 1.0873155001710415e+01 2.4939938307365694e+01 0 1 0
1548 2 9.0980918986054675e+00 1.0042155187581921e+01 1.5951367316798301e-01 0 1 1
863 2 7.8446385724203687e+00 5.2583545527398998e+00 7.7315717641860282e-01 0 1 -1
1693 1 1.8088928872109165e+01 1.0012309153497798e+01 1.6181232074814847e+01 0 0 0
271 1 1.5327579015433050e+01 1.3665522181551140e+01 2.2601810733199450e+01 0 0 0
805 1 1.5609230475907379e+01 2.4022316205968600e+01 9.1938701784510624e+00 0 0 0
1657 1 1.3667456822499686e+01 1.3286356453880270e+01 1.3122461397140544e+01 0 0 0
385 1 2.2584505476413348e+01 1.5696575689497823e+01 2.3600849992146781e+01 0 0 -1
154 1 7.5807038768944111e+00 5.1543498684611713e+00 1.0413874004591543e+01 0 0 0
1147 1 2.7120550620456321e+01 1.8544940918328663e+01 2.3445731929100752e+01 0 0 -1
850 1 1.0130414853249370e+01 1.3139927797925253e+01 1.3617225430873312e+01 0 1 0
87 2 2.0430606831346172e+01 2.9810833752002615e+01 1.7302669207244186e+01 0 0 -1
1734 2 4.0000184625182813e+00 4.3613228984105135e+00 2.0255958094286424e+00 0 1 0
2437 1 1.5492110164257937e+01 1.8543188509273893e+01 9.7967609116371044e+00 0 1 0
1615 1 1.9310635703770465e+01 2.3590083401863403e+01 1.6842900227792150e+01 0 -1 0
920 2 2.1852055752351717e+01 2.3097121560826324e+01 2.6385232829649588e+01 0 0 -1
1211 2 2.1821849033243542e+01 2.6423823081087711e+01 1.0997930218004150e+01 0 0 0
871 1 1.6192636096627339e+01 1.1383463847651043e+01 2.0210939921735893e+01 0 0 0
2669 2 2.1670183758125983e+01 1.6620727326495555e+01 1.8430844372845801e+01 0 1 -1
2289 2 1.6988641246921979e+01 1.8897976554845386e+01 2.5985988203583712e+01 0 0 0
2810 2 1.9892194362347475e+01 8.2164153688740384e+00 1.9021000266136266e+01 0 1 0
2626 1 1.6321448540891581e+01 2.4024020864485305e+01 2.1611441200390278e+01 0 0 0
2492 2 2.0432867102941465e+01 2.8233243522254746e+01 2.2917318723120186e+01 0 0 0
1085 2 1.3349564622674968e+01 2.5116500234859256e+01 3.6311607112441950e+00 0 0 0
339 2 2.6781354788120666e+01 1.6311419178743513e+01 2.6577480365525059e+01 0 0 -1
273 2 1.5924919805615930e+01 1.2953545525244500e+01 2.2912955183105474e+01 0 0 0
972 2 2.8610970070965529e+01 3.2464966162249496e+01 2.2442483808715490e+01 0 0 -1
2980 1 1.5565537774519465e+01 2.4988894038491072e+00 3.0373063765359953e+00 0 1 1
1087 1 2.1692993318766622e+01 2.8604128542356221e+01 2.5787028381999690e+01 0 0 -1
1618 1 9.9719689518033405e+00 1.8383015030482035e+01 6.5057567434579679e+00 0 0 1
2472 2 1.4716583606650214e+01 1.6785925155874441e+01 4.1042140128738360e+00 0 1 1
2575 1 1.9864892978185587e+01 1.5280924425845374e+01 2.0240714136718754e+01 0 1 -1
2243 2 2.1661110687685351e+01 2.5188522247302053e+01 1.9440358595450697e+01 0 0 0
2434 1 1.9997083809274663e+01 1.7095578154953706e+01 8.8692263181000630e+00 0 0 0
3028 1 1.9347387752303916e+01 1.1772053191329661e+01 2.5260993169969279e+01 0 1 0
1894 1 1.8937587759783398e+01 2.3904100978718922e+01 1.3778581622280711e+01 0 0 1
880 1 2.1192983510066163e+01 2.3479286085717138e+01 5.3615922475357145e+00 0 0 0
84 2 1.4954317965358321e+01 1.8667398414534389e+01 2.4330709814702189e+01 0 0 -1
283 1 2.1591685933908973e+01 2.9142018381927045e+01 1.1264293036075641e+01 0 0 -1
386 2 2.3230274389555994e+01 1.6321778977310860e+01 2.3977771788834115e+01 0 0 -1
3005 2 1.5488585469493092e+01 5.8480540558057310e+00 1.8770838614705358e+01 0 1 0
726 2 1.9015979675638832e+01 2.8738208211440146e+01 6.0963410251449632e+00 0 -1 1
1589 2 1.4123257199775651e+01 2.2826434884782671e+01 1.3341548551374439e+01 0 -1 1