LAMMPS data file via write_data, version 8 Apr 2021, timestep = 500000

384 atoms
2 atom types

0.06391160265395592 15.006186397346555 xlo xhi
0.031419633375493146 14.138813366624733 ylo yhi
0.1075938060905888 13.598129193910406 zlo zhi
5.152601313400596 5.124076004630699 3.546162392972496 xy xz yz

Masses

1 16
2 2

Atoms # atomic

1 1 7.504570440446887 5.39455984589195 4.0752342213040125 0 0 0
2 2 7.040863045541148 6.231841980912417 4.312024673228723 0 0 0
3 2 6.8362279014920855 4.868307733548895 3.6269615742537904 0 0 0
4 1 10.256493653422186 6.943527134076243 10.636934566769378 0 0 0
5 2 9.769564815880171 7.718332083568669 11.002832957764662 0 0 0
6 2 10.710342215968462 6.555783566329447 11.399553991581271 0 0 0
7 1 9.732552453503914 12.279491918188818 4.01806502518717 0 0 0
8 2 10.355961191874812 11.849514268284493 4.640435848476903 0 0 0
9 2 9.517551445552566 13.136299940217755 4.445194111029635 0 0 0
10 1 12.595844908887257 14.066383908519157 10.857376972087735 0 0 0
11 2 13.311706980782303 14.257939422423178 10.23073973942281 0 0 0
12 2 11.971689307320972 13.556268345078887 10.365124377792425 0 0 0
25 1 11.577283536496788 7.950616809810349 6.148675883581593 0 0 0
204 2 13.313374240494337 10.334944529376337 9.234660400571755 0 0 0
27 2 11.040420435731306 7.5952967989765785 6.848939285146376 0 0 0
28 1 14.191522420926637 10.180950683403696 13.153659436278529 0 0 0
29 2 13.351612036254403 10.657207437839194 13.065631432043103 0 0 0
364 1 9.828574784705092 9.25386482728162 11.956572712820877 0 0 0
31 1 14.153198919876852 14.871625693357522 6.391836513826558 0 0 0
125 2 4.916718191885066 4.072587887221555 10.386305892037957 0 0 0
33 2 13.550534284370613 15.53903245830551 6.034424416832383 0 0 0
34 1 16.765350770578543 16.96900479262662 12.885918549570722 0 0 0
131 2 7.475586991613941 11.16574259856916 10.709811108284685 0 0 0
372 2 13.192520407576477 16.78995862674376 12.152816068044274 0 0 0
49 1 5.426409181907115 3.9412134196641486 2.674693258052556 0 0 0
50 2 5.5763847975175 2.9976607290849118 2.4198823213722265 0 0 0
51 2 5.084346173375818 4.39581095771131 1.8859669623405326 0 0 0
52 1 7.72022379544565 5.58355407669692 9.694835373408193 0 0 0
53 2 7.066069705237545 5.545682882495459 10.40245416527987 0 0 0
54 2 8.5226222542512 5.932874014516194 10.108369389520998 0 0 0
55 1 7.536139792034795 10.761062382259981 3.170558088001382 0 0 0
56 2 7.862340625744633 9.900605757400289 2.858698630664892 0 0 0
57 2 8.308518374927996 11.325736151239127 3.47994508469867 0 0 0
58 1 10.574001651605805 12.35660727472268 9.581042940554124 0 0 0
59 2 10.229782849358221 12.579466202804696 8.710669020460726 0 0 0
60 2 11.130499855267775 11.555906580212383 9.418139079304735 0 0 0
73 1 0.9976791417472567 0.6117678245901117 0.6334962306252607 0 0 0
74 2 7.013379910432829 14.269312435484732 0.8899064784949906 0 -1 0
371 2 12.34943148474518 15.547683374354493 11.639030704638861 0 0 0
76 1 3.6448659219074964 2.5058090492772163 7.2426525556995855 0 0 0
282 2 5.333283017197352 7.321467444146192 8.738393525639006 1 0 0
78 2 4.552099956495701 2.1455001074603732 7.28058997014693 0 0 0
79 1 3.649365377667154 8.074049969042246 0.8769745702459877 0 0 0
80 2 4.37166910603156 7.506054742426481 1.1603611288521485 0 0 0
367 1 9.755034192880776 14.820150060567839 5.209619142857622 0 0 0
82 1 6.095474252824508 9.70610829561066 7.504290945437176 0 0 0
370 1 12.285149081020506 16.37023503423672 12.200722282121635 0 0 0
194 2 8.104705392198152 1.8138445380143797 1.7034183197412256 0 0 0
97 1 5.3113301972964395 4.243758515731342 6.133316943888756 0 0 0
98 2 5.073991473122493 4.79282456546129 5.309422460416772 0 0 0
99 2 4.4664579544036105 3.767981849236128 6.433340580968188 0 0 0
100 1 7.777077138530189 5.9412903444309135 12.669911735778813 0 0 0
101 2 8.17323322344142 6.622332771760801 13.254259010436787 0 0 0
102 2 7.151092271793492 5.474214386502347 13.295497819524883 0 0 0
103 1 7.732642786798626 11.257059808111531 6.180262166725488 0 0 0
104 2 6.984222504490061 10.728002999027174 6.587062569213003 0 0 0
105 2 7.423915134688116 11.824772390449736 5.4157607526898905 0 0 0
106 1 10.200538015336587 13.091531440960695 12.689830015172513 0 0 0
107 2 10.739959378001632 13.77015994975742 13.126360523796318 0 0 0
108 2 9.69737863659451 12.57995307634872 13.340062356870488 0 0 0
121 1 3.0951335881097286 2.932516445244943 3.775527614830416 0 0 0
122 2 3.8420127824386654 3.3910539590287323 3.3870469751081584 0 0 0
369 2 10.670088069388251 15.11948751399998 4.999454232416937 0 0 0
124 1 5.673192764401444 4.3845348237549535 11.011743459555868 0 0 0
338 2 4.330410296898931 7.229177645002466 4.697907789031186 0 0 0
126 2 6.103757051769977 3.548574472995115 11.34037387860499 0 0 0
127 1 5.386030879016694 10.051672316502712 4.471005141523384 0 0 0
128 2 5.745574785177068 9.133899125449707 4.649545868271489 0 0 0
129 2 6.178407644454869 10.360787974406051 3.9752349235883906 0 0 0
130 1 8.249376579117342 11.539528378219707 11.159093404957167 0 0 0
30 2 14.912009159043322 10.716652108914738 13.448928506311793 0 0 0
132 2 9.008714176711702 11.811085753635579 10.562594160294777 0 0 0
145 1 7.07269433229502 2.1907113143346253 4.9905893177697545 0 0 0
146 2 6.6255791528981485 3.006038948049398 5.291647814431586 0 0 0
147 2 7.394558589237481 2.427658136161768 4.115640130406536 0 0 0
148 1 9.417372440090707 3.895973728637902 11.751223077546237 0 0 0
149 2 8.955924709609034 4.6926878954987865 12.129916767090775 0 0 0
150 2 10.19098665923957 3.6731628615102565 12.319504571927663 0 0 0
151 1 9.348331403498662 9.235616400387114 5.145355506515848 0 0 0
152 2 8.943983066515507 10.008152305764439 5.621228385381021 0 0 0
153 2 10.052855037401859 8.876912464998972 5.685666043182876 0 0 0
154 1 11.753833567174558 10.976564881304649 12.22563378181477 0 0 0
155 2 11.247322563079209 11.802843079823147 12.276764936998404 0 0 0
156 2 12.296519679770553 11.048454032734847 11.409824482118978 0 0 0
169 1 8.997754716486602 4.289078727922913 6.181853618814485 0 0 0
170 2 8.421382443344182 4.667680910736311 5.458309567601172 0 0 0
171 2 8.40872270549596 3.6707035002053723 6.622247548823472 0 0 0
172 1 11.668734721472521 6.370355589562537 12.899787216784121 0 0 0
173 2 12.483980360608681 6.092579445839062 12.491586885850358 0 0 0
174 2 11.883862721453653 7.150983649142595 13.425915246197281 0 0 0
175 1 11.82619605094309 11.466053347412103 5.9115342008725555 0 0 0
176 2 11.291065695145026 10.939592391979023 6.5149638112525645 0 0 0
177 2 12.348924174434703 10.843770236335356 5.364701631473051 0 0 0
178 1 14.213870376126533 13.282070758486881 12.796643485273279 0 0 0
179 2 13.59267693636736 13.434426997579958 12.006334507812474 0 0 0
180 2 14.980935992445806 12.830203754074429 12.400348972276074 0 0 0
193 1 8.321073184873185 2.4209334147174486 2.4550876375534014 0 0 0
339 2 3.601291761606126 6.342192707734373 3.6295054810063 0 0 0
195 2 8.136615060811565 3.2512304135786065 2.049485754947772 0 0 0
196 1 10.892716993101022 4.4554652712192215 9.467326795433673 0 0 0
197 2 10.366615910967553 4.0880643341081475 10.19088850933063 0 0 0
198 2 10.634334041726477 5.387768994538317 9.407609189968142 0 0 0
199 1 10.95826986348118 9.606353934656429 2.9588854066069716 0 0 0
200 2 10.726629065472356 10.506197394273942 2.4900961958507026 0 0 0
201 2 10.18510954495901 9.478497371976621 3.6257761163761364 0 0 0
202 1 13.294496403482913 11.17069015992581 9.739243280391515 0 0 0
203 2 13.226334703535551 11.785888466743177 9.019180180389029 0 0 0
26 2 12.385887430475536 8.40877513145623 6.607562567481751 0 0 0
217 1 5.687173047980819 1.2861717181451253 1.5622209982171071 0 0 0
218 2 6.2403100000550324 0.5763193244534579 1.9878374566903347 0 0 0
219 2 6.081686601105785 1.472262517115211 0.7189835754860927 0 0 0
220 1 8.254224926117132 3.035142441195857 8.770026354058192 0 0 0
221 2 7.965619071555034 3.849192516392382 9.132832088913748 0 0 0
222 2 7.450196749945891 2.5383953235001555 8.7250473715041 0 0 0
223 1 8.14769144984611 8.68487739362015 1.9291424078987889 0 0 0
224 2 8.783968021814237 7.952219430978653 2.0409542527244513 0 0 0
225 2 8.457542318005338 9.109196121219457 1.0887030536754134 0 0 0
226 1 10.870973609702558 10.126615942713642 7.9572540654274 0 0 0
227 2 11.413154429331993 9.398133412828718 8.29343337429505 0 0 0
228 2 9.948215846123416 9.818625218109649 7.941161544025268 0 0 0
241 1 7.631506257641643 4.894546881930753 0.8621234164841522 0 0 0
242 2 8.337349982382227 5.458932346399397 0.4363877426540921 0 0 0
243 2 7.06766583469781 5.526625214123189 1.341531760460474 0 0 0
244 1 9.868544871176995 6.6964931735021445 7.78008520012285 0 0 0
245 2 9.290227192398774 7.399095121480576 8.140441792162905 0 0 0
246 2 9.366151715748943 5.9714172202998155 7.353521985461191 0 0 0
247 1 10.252105609327204 11.641475072349289 1.008860715332379 0 0 0
248 2 10.925602556901135 12.15201481332678 0.6007055500772697 0 0 0
249 2 9.795339612787174 11.150104363248019 0.2747168463881518 0 0 0
250 1 12.783481745200202 13.140272928674781 7.914100063603353 0 0 0
251 2 13.416712813212328 13.673646574545863 7.374588734394965 0 0 0
252 2 12.278529047584529 12.563160999135048 7.270488980036353 0 0 0
265 1 9.903901132083517 6.366842891412422 2.657558736622532 0 0 0
123 2 2.7306673765950893 3.4306019028270116 4.591170883502724 0 0 0
267 2 9.125476912713356 5.919500839275426 3.047850562204382 0 0 0
268 1 12.29629676243426 7.880135744609782 9.14118202900685 0 0 0
269 2 11.471433402524275 7.482469588947288 9.528967614768618 0 0 0
341 2 6.771770759030005 8.896334327587246 11.940273745694991 0 0 0
271 1 11.955107396048433 13.32659998985153 2.8193134785556997 0 0 0
272 2 11.238326103855277 12.842389116802966 3.316961622751008 0 0 0
266 2 10.609143847428392 6.2662377306712544 3.3534668745380833 0 0 0
274 1 14.641338556205776 14.838810104997172 9.574564943158853 0 0 0
275 2 14.477613466465671 15.730842345464648 9.238924936077535 0 0 0
366 2 9.117789276219153 9.83243263987803 11.663740088081505 0 0 0
289 1 5.989465585526733 6.899886681401501 1.8607355430301367 0 0 0
290 2 6.630305194235691 7.5625242469541005 2.0659409920628033 0 0 0
291 2 5.529510720242077 6.76585699420555 2.7461136611456065 0 0 0
292 1 8.46910431405506 8.78298748323728 8.793144818661231 0 0 0
293 2 7.714796002316352 9.185820955286594 8.301366880290061 0 0 0
294 2 7.980350370398013 8.428636321803701 9.561449721762408 0 0 0
295 1 8.505606466204 13.673544907461379 1.5833471214408505 0 0 0
296 2 9.144209107900288 12.94773488596888 1.440133766095872 0 0 0
297 2 9.109743860973587 14.400236448975209 1.7152672988036326 0 0 0
298 1 11.279939061663226 15.513075005514184 8.653680042969688 0 0 0
299 2 10.992278125710888 15.36765159129211 9.542572789681886 0 0 0
300 2 11.470399262015942 14.56978268451496 8.407592489764026 0 0 0
313 1 3.516944326090002 4.515874426049636 0.6981628308358235 0 0 0
314 2 9.027935377059606 8.532128572684275 13.43653094192116 0 0 -1
315 2 3.0417475194443426 5.103678087279949 1.282193504939524 0 0 0
316 1 6.164416912971499 6.458854006732432 7.559010487262406 0 0 0
317 2 5.774435699245048 5.653334626897916 7.122843754194566 0 0 0
318 2 6.873132013154799 6.104083995851018 8.05405202222652 0 0 0
319 1 5.978178028953679 11.585420886784075 0.9969134209155032 0 0 0
320 2 6.637132887357269 11.297298177141052 1.720426335676402 0 0 0
321 2 6.5208407399163875 12.226202833655336 0.44443755807620544 0 0 0
322 1 9.095058218110944 13.316655964709616 7.578942556439957 0 0 0
323 2 9.383475090476646 13.926283723674375 6.871869786095373 0 0 0
324 2 8.537020307168008 12.643335948410204 7.085136248162002 0 0 0
337 1 4.496744023911267 6.501593274916237 4.051054590421831 0 0 0
363 2 7.841019372910876 8.255291318708316 5.179468367435104 0 0 0
288 2 7.894258365262843 14.251548549285179 8.659081480390874 1 0 0
340 1 6.995591676383134 8.236728623313699 11.196957573122523 0 0 0
273 2 12.745912425176702 13.429673961775483 3.4217892756629644 0 0 0
342 2 7.26241068561762 7.426917061993536 11.652238420571564 0 0 0
343 1 7.043008150406406 13.407480121523339 3.9777194076461706 0 0 0
368 2 4.0367068596479205 1.3377594804554922 4.701053759299058 0 1 0
345 2 7.53079482191569 13.594042611817022 3.1332079252077185 0 0 0
346 1 9.536846650347234 15.241284030759756 11.042552340860565 0 0 0
347 2 9.535626801237413 14.358549140416361 11.55501087817729 0 0 0
365 2 10.669637679160465 9.80711543187219 11.949972365183632 0 0 0
361 1 6.986653178318368 7.817699408670886 5.248939755919889 0 0 0
362 2 6.809393590262891 7.470055843961111 6.14433170028891 0 0 0
348 2 8.67744354618158 15.195577396432384 10.530111327865303 0 0 0
270 2 12.987115637591085 7.865827495893372 9.901484962955905 0 0 0
276 2 15.222002842856911 14.46322649625445 8.885547466892444 0 0 0
35 2 17.571567379521813 17.46531508799056 13.189623943414116 0 0 0
77 2 3.1325521195686803 1.9115779093097691 6.677135652919828 0 0 0
344 2 6.070878615638717 13.471122403981502 3.5900913100158633 0 0 0
134 2 9.94623005870924 3.4160255099918113 4.9624344230540345 0 0 0
45 2 6.895386391854656 14.453369399092978 5.310312621743954 1 0 0
89 2 10.729360578748413 3.1060136319346467 7.912633562510514 0 0 0
353 2 13.94397069584324 8.670653752007151 11.751251963962037 0 0 0
47 2 9.485598299302753 16.36554435152122 12.24146540295554 1 0 0
75 2 0.8862507950470866 1.257343508502441 1.3521492929777537 0 0 0
13 1 15.014024003143211 5.172046186255146 3.95309328317586 0 0 0
14 2 14.231089812524804 4.718114573563458 3.6242138651928872 0 0 0
15 2 15.490973180508268 4.582049118802593 4.5439612142851376 0 0 0
16 1 17.5472810227884 6.976802722590578 10.889518464120018 0 0 0
17 2 16.817300731886945 6.401679915738264 10.457279268045884 0 0 0
18 2 18.20737868655051 6.999378085381026 10.149571335015318 0 0 0
19 1 17.49683235350901 12.297244495389526 4.18041020671798 0 0 0
20 2 18.254787702732425 12.434142967849347 3.6156545585156232 0 0 0
21 2 16.874601614581763 11.79235197598106 3.7105477417683876 0 0 0
22 1 19.904586227232585 13.898212710948743 10.711611892138697 0 0 0
23 2 20.479241197828916 14.16925485880355 9.99124401203468 0 0 0
24 2 20.500152466680674 13.551284932932719 11.399985860693423 0 0 0
37 1 19.018897363926932 8.14635552173894 6.135046975656025 0 0 0
38 2 18.183083209991025 8.629413111314662 5.914941470552974 0 0 0
36 2 17.006715089184095 16.50128555157468 12.084555180089692 0 0 0
40 1 21.4665374258758 9.741467933996713 13.241245396613255 0 0 0
285 2 19.996111334625787 12.431071600935912 2.0142190968341396 0 0 0
42 2 20.776938371390795 10.320822378374423 12.78670472418453 0 0 0
43 1 21.685597552464106 15.062072282041065 6.082486093120944 0 0 0
44 2 20.90448425669576 15.565926995646347 5.74146481439394 0 0 0
384 2 19.966446619455468 15.678949263189626 11.530187156184006 0 0 0
46 1 24.095816473943128 16.875379581088385 13.01984594540993 0 0 0
209 2 18.398815637790946 3.840960204369346 8.690370741248719 0 0 0
206 2 16.538332536726518 2.80867384877091 2.980275895908651 0 0 0
61 1 12.7551466294367 3.8229020346378944 2.9776883682205844 0 0 0
62 2 12.10562765550069 3.604410080267151 3.650025230045174 0 0 0
63 2 12.228473651385979 4.110845894910319 2.1739036684403312 0 0 0
64 1 15.406871103508278 5.41616153839575 9.732439711175633 0 0 0
65 2 14.812706407092072 5.809946704782677 9.022385932951742 0 0 0
66 2 14.803783581135738 5.030329407691535 10.44636393208429 0 0 0
67 1 15.311431731466314 10.751070468153792 2.7393024118988616 0 0 0
68 2 15.519985253763743 9.850477558691768 2.4534187727417653 0 0 0
69 2 14.598391787155894 10.49964625831765 3.355657770265995 0 0 0
70 1 17.793120477166692 12.328293525862607 9.582965425809304 0 0 0
71 2 18.529736413877867 12.792685973938806 10.102820254707616 0 0 0
72 2 18.123492688246266 11.458638852977998 9.317554708245641 0 0 0
85 1 8.522414882888592 0.5796507709725031 0.43594886630261487 0 0 0
86 2 14.310970019737175 14.134318644888033 0.9446387826969471 0 -1 0
87 2 14.150545704572536 4.676547789413626 13.247246144773507 0 0 -1
88 1 11.054817589147138 2.5113528625773918 7.247687420680467 0 0 0
138 2 12.81802258810519 4.328639790798052 10.24636847318452 0 0 0
90 2 16.879247488341456 16.008409794014877 7.618987969360463 0 -1 0
91 1 11.499383728804254 8.146894523759448 0.7185243234603841 0 0 0
92 2 12.19468544208547 7.486327496380483 0.895397699206823 0 0 0
383 2 19.50318593931924 16.035409349437053 12.985262985404558 0 0 0
94 1 13.73772474274764 9.560230031019731 7.338207167531615 0 0 0
95 2 14.556446355678556 9.132068237878133 7.638811986533102 0 0 0
96 2 14.030221262723108 10.441643850349726 6.965049230096422 0 0 0
109 1 13.053220115850879 4.2667533057042615 6.196014164007985 0 0 0
110 2 12.30357211964721 3.781860578443281 6.52526817841609 0 0 0
111 2 13.685192687340109 3.582450605668841 5.9140812849438475 0 0 0
112 1 15.383688726280162 5.940512375709841 12.727888924145022 0 0 0
113 2 16.07862211316135 5.238215050757767 12.598748193244095 0 0 0
114 2 10.407411198421292 2.8431688899510488 0.12452724364589986 0 0 1
115 1 15.243504770589317 11.48838379534936 6.162018287769826 0 0 0
116 2 14.9685595508309 11.96447887966205 5.344216034158044 0 0 0
117 2 15.601910285838287 12.156756287867807 6.820029235852734 0 0 0
118 1 17.894344089856332 13.4078147496502 12.659422290220142 0 0 0
119 2 18.184603185443166 14.128568975557709 13.264054201203086 0 0 0
120 2 17.270015197335944 12.789885723232699 13.148902034382179 0 0 0
133 1 10.393720078115559 2.832957077391561 4.2305950427167005 0 0 0
350 2 12.096483551184344 7.007458444474815 4.800375023373008 0 0 0
378 2 16.557386069352493 10.025994990871961 12.056700399036652 0 0 0
136 1 13.434328026552611 4.477597105980371 10.98325138006936 0 0 0
137 2 13.731916425296196 3.5935385067714583 11.286245915893945 0 0 0
212 2 18.93822430078357 9.759480658194493 3.1230527780445096 0 0 0
139 1 13.275804578396524 9.78173054078272 4.280960613487108 0 0 0
140 2 13.566532831902128 8.949701373984677 4.6848947910310965 0 0 0
39 2 18.712883018087048 7.355551237879379 6.600799998074807 0 0 0
142 1 15.691138587105263 11.534048228443897 11.30084225263671 0 0 0
143 2 16.36218217063777 11.927941031502433 10.676591327336839 0 0 0
93 2 11.134346604129433 8.591354463440435 1.530317448346949 0 0 0
157 1 14.233437367829222 2.1394397210234537 5.149978177969553 0 0 0
158 2 13.417391323715549 1.6064099445758875 5.3374639481996144 0 0 0
159 2 14.40179355195656 2.138105221025914 4.166645526537372 0 0 0
160 1 16.93848450609107 3.888627426142567 11.602341747004774 0 0 0
161 2 16.267104081081644 3.208884428101534 11.867839854840401 0 0 0
162 2 17.68329276667527 3.7372343951130382 12.202399153231614 0 0 0
163 1 16.562495946607882 9.314004407232773 5.369525373919473 0 0 0
164 2 15.90781647312597 8.565979372950586 5.340596543320837 0 0 0
165 2 16.15508708416466 10.154109771679423 5.6287218056506605 0 0 0
166 1 19.413229164435403 11.157382446912457 12.233598876050399 0 0 0
167 2 18.692164849650318 10.50802428242676 12.29664689700942 0 0 0
168 2 18.95447423394139 12.063245044021128 12.221449437499736 0 0 0
181 1 16.740469919747287 4.323351772768867 5.778829310107817 0 0 0
182 2 16.45368075493613 3.755673509927337 6.526298581461417 0 0 0
183 2 17.007072937606676 5.180099390232435 6.158581606301702 0 0 0
184 1 18.9540798477671 5.735550302800338 12.757291750598414 0 0 0
185 2 19.624296808660517 5.288836211440663 12.223779626115467 0 0 0
186 2 18.31318242346943 6.098546494410845 12.120819039990424 0 0 0
187 1 18.773940659350764 11.25559009181192 6.246285881947024 0 0 0
188 2 19.387672558467564 10.754866321148185 5.672626617181481 0 0 0
189 2 18.084557656906973 11.608054494593981 5.655295203301961 0 0 0
190 1 21.739015900361444 13.09366383208471 12.66301882123895 0 0 0
191 2 22.442677770127055 12.49959108228326 12.210052984142385 0 0 0
192 2 22.2286666929763 13.79915316795107 13.098305127315879 0 0 0
205 1 15.686661524670907 2.4110048106382913 2.6579061270198965 0 0 0
356 2 14.391888801071232 14.125905034192876 4.882121485760618 0 0 0
207 2 15.197750239936344 3.1203975789373466 2.2361489747017504 0 0 0
208 1 18.528916801647235 4.522678234994289 9.373459076279048 0 0 0
281 2 20.31214737958944 7.977495184645622 10.100262470740907 0 0 0
210 2 17.816845462945547 4.337470190850858 10.078393635783772 0 0 0
211 1 18.007433950248082 9.698718318734482 2.8686231759687018 0 0 0
381 2 17.277906134209825 13.97986700623652 4.711917848935949 0 0 0
213 2 17.523516054692067 9.538857311632116 3.6993051666324592 0 0 0
214 1 20.663739404034647 11.01652620706742 9.680914704234702 0 0 0
215 2 20.109068910827528 11.055094773112643 10.47565080668051 0 0 0
216 2 20.53855266526183 11.819629756878236 9.166605015023217 0 0 0
229 1 13.053602464576077 1.2507284808413794 1.8228266592959421 0 0 0
230 2 12.997362826976268 2.0553613364061465 2.3653779757905746 0 0 0
231 2 13.245937878918445 1.4702943084027575 0.8659825834833031 0 0 0
232 1 15.880720681230923 3.1715443245115797 8.178164627464158 0 0 0
233 2 15.770645624305898 3.980964428024431 8.74614776372137 0 0 0
234 2 15.07179767676602 2.635295334100035 8.27318804364831 0 0 0
235 1 15.826227967741325 8.45162416276731 1.6673330436862368 0 0 0
236 2 16.02505898922047 8.868893889931478 0.7884721880881954 0 0 0
237 2 15.074353530916246 7.849834179995813 1.4433642844289942 0 0 0
238 1 17.897915784087 9.678977705351688 8.519397582897112 0 0 0
239 2 18.475810117123938 8.979160270688599 8.841579879696784 0 0 0
240 2 18.195138387211106 9.765480980053384 7.5830434735434515 0 0 0
253 1 14.792561665860509 4.172999229267991 0.7583212609956508 0 0 0
254 2 15.501645732828019 4.743632128495905 0.30802639472313253 0 0 0
255 2 14.49405359011479 3.448171898537644 0.12270740448279432 0 0 0
256 1 17.443317096086563 6.462271234405356 7.653292189549291 0 0 0
257 2 16.816199122282075 7.167092014188924 7.9834346364464785 0 0 0
258 2 17.733202359605716 5.817077204540786 8.338851020599808 0 0 0
259 1 17.36352192184144 11.590773118388285 0.8927127051006263 0 0 0
260 2 18.058614156499583 12.226039300017469 0.703907680621171 0 0 0
261 2 17.56167611845721 11.079287674944156 1.694008362264476 0 0 0
262 1 20.12866538332984 13.290668775042581 7.694525585464339 0 0 0
263 2 20.86999225804801 13.631423473271052 7.144732239506805 0 0 0
264 2 19.661401591951364 12.63909180516071 7.111339114841257 0 0 0
277 1 17.06921620541787 6.30000680201102 2.7828488345978557 0 0 0
278 2 16.268730629709147 5.859086119875693 3.058059314518962 0 0 0
279 2 16.83483486104009 7.046135642667795 2.1953602026791863 0 0 0
280 1 19.675751930805074 7.754233599667359 9.387311800016697 0 0 0
380 2 16.412947531763237 15.370906855634761 4.844085423737805 0 0 0
382 1 19.857055173285904 16.40904922844023 12.15843460212784 0 0 0
283 1 19.70150115399717 13.080051654971882 2.763409643678429 0 0 0
284 2 19.394846008144338 13.873622948619165 2.262033163621254 0 0 0
81 2 18.3124585823761 8.620489751739365 1.5952685076491238 -1 0 0
286 1 22.57076171167915 14.812629089597776 9.411544177879849 0 0 0
287 2 22.152199803855183 15.59352964451086 8.954104718438353 0 0 0
379 1 17.167310634717055 14.861602766321987 5.148623457558948 0 0 0
301 1 13.414985717564084 6.603242296560386 1.608351966896202 0 0 0
302 2 13.854009377853204 5.859939164935145 1.1672546656280451 0 0 0
303 2 13.081413482972986 6.332391009912931 2.4593613569730404 0 0 0
304 1 15.751456511164468 8.45184888034287 8.618036946038085 0 0 0
305 2 15.259487289218063 8.182106817407702 9.438559514177225 0 0 0
306 2 16.527305659808146 9.041113079870483 8.704150502262822 0 0 0
307 1 15.998015059082336 13.628778391238804 1.8227522744662081 0 0 0
308 2 16.698737566191898 14.259754962637338 1.6865882579110532 0 0 0
309 2 16.36063934992784 12.743996046099761 1.5486504832467014 0 0 0
310 1 18.622557973553278 15.519708386573042 8.377353089515138 0 0 0
311 2 19.24189382259999 14.831542307577138 8.080489377854239 0 0 0
312 2 18.325524488666126 15.160966222138347 9.261505847620949 0 0 0
325 1 11.15227023685177 4.419911168173154 0.927523495240107 0 0 0
326 2 10.65471762652136 5.078911352607869 1.4879304828039184 0 0 0
327 2 11.507032669811887 5.007790606677952 0.21109759118654223 0 0 0
328 1 14.09608035280936 6.268121845383721 7.721721614196097 0 0 0
329 2 13.455580972843421 6.888009792108023 8.082131367263356 0 0 0
330 2 13.550105888666627 5.665888334281619 7.173645014305859 0 0 0
331 1 13.797937002500639 11.781373228535353 0.9994675544031215 0 0 0
332 2 13.039032762333433 12.256844776285597 1.4898825301777134 0 0 0
333 2 14.458837007104433 11.535394922964137 1.712640885879453 0 0 0
334 1 16.40252053961046 13.504503615528488 7.581287668972326 0 0 0
335 2 17.066397022861786 13.007264574551327 8.162178638082324 0 0 0
336 2 16.89876562202438 14.05540061132487 6.9816904006184 0 0 0
349 1 12.266389776020887 6.2399291940934996 4.21794555150676 0 0 0
377 2 17.300303539686418 8.541451374902211 11.699378617210451 0 0 0
351 2 12.574485711049117 5.568904679713442 4.854713272972415 0 0 0
352 1 14.135354129539747 8.006059401681938 11.06725606163542 0 0 0
360 2 16.130261689520523 15.020494084580617 10.710850817121361 0 0 0
354 2 14.800811446861092 7.487372627357587 11.579243426073564 0 0 0
355 1 14.245311457204204 13.566374472838296 4.044449004732013 0 0 0
375 2 14.783519458282084 7.1558584323970855 6.336666960261954 0 0 0
357 2 14.978529092792582 13.666072467979758 3.3973742293061013 0 0 0
358 1 17.067279069311958 15.12921016682074 10.929037163459643 0 0 0
359 2 17.387852372381413 14.305933667379016 11.489659449028249 0 0 0
376 1 17.20904439325954 9.310232189954426 12.359364429902547 0 0 0
373 1 14.828132001978913 7.470665059614956 5.422261966470705 0 0 0
374 2 14.850815345072437 6.682913477279489 4.856982848856772 0 0 0
141 2 12.420304381655098 9.493096333672277 3.816112267684059 0 0 0
144 2 14.93483218560567 11.453756131528008 10.677329122570407 0 0 0
48 2 24.78579388521501 17.46762901898269 13.276770495155608 0 0 0
135 2 9.705810744446076 2.6361538232494284 3.566508466304426 0 0 0
83 2 20.756478221576618 10.038481686015453 8.409299496069565 -1 0 0
41 2 22.255164288153335 10.25740921846698 13.519311279744878 0 0 0
32 2 14.996575766759642 15.31446740020161 6.668456849855845 0 0 0
84 2 20.33211648692949 9.247231265133802 7.068825192928718 -1 0 0

Velocities

1 -5.404650245092029 -1.3338478701391265 -1.8058739485098207
2 -1.4599079742265564 9.99434319162543 0.870821035998541
3 -4.431311280980717 3.3115002898288126 14.36022254826351
4 5.654399613862311 -7.143496165164763 -1.3783894572295643
5 13.549190123341402 -22.079790532454393 0.27224274158376377
6 -1.237429918987992 -7.407622761811177 10.222414913792472
7 -3.7505754121664965 3.0697203686562866 3.557100379911112
8 -22.603901329161804 -22.498348181576716 -19.440256196127894
9 10.68576063274197 -6.747930296708298 18.037833378299364
10 0.7977384128432276 3.754202495902839 -3.3029251390409105
11 6.604847127214102 8.15271954393441 1.7681381343497649
12 4.731292169832541 5.357262163986476 9.19415026184267
25 -5.16301222111896 -4.94225318863733 -3.6104281695609224
204 17.013271652019867 -5.38377953572498 -1.799725763869869
27 3.1292965542200655 -1.0692408120187389 1.0756701271549007
28 -0.8351439808658665 0.6644689320740085 -6.273994868727468
29 -15.836630126502088 7.482346841198782 -11.594244128534887
364 0.5730993614881167 3.3821011468363387 2.439483316227727
31 0.42328776247227484 -0.3314906625354269 -0.3283417933737645
125 -10.334005598781433 -16.293013283218404 -17.931501709115384
33 11.796378720621199 8.681352634660865 13.345843913512995
34 5.179137134700767 2.6666250847431154 2.103656469455868
131 6.533762025484071 -10.370970780392017 -14.416149173096988
372 1.7039907895497568 -1.6194586721421889 -3.494743891434152
49 -1.6908053660018927 4.97084524090434 -0.5047085940869401
50 1.7410544116338944 -8.926541431152826 4.978411273318969
51 -9.332562618483351 -19.107833296443523 -2.584735713129244
52 -4.813098048152639 0.6882402865016023 1.887362241673997
53 1.6687436956030863 5.963494291165743 10.68327477198961
54 -16.487239265221238 -13.189113415493551 -20.705806153781054
55 0.5368598356926049 3.1663171252985753 1.450563228331876
56 -1.145520830981715 3.4519848502286936 2.1015606201970236
57 13.851978178399087 12.029090815222137 -5.490682737892728
58 -5.818035439526542 -8.902307907832842 1.9834537658246476
59 -6.4409015748637435 3.6040540496872446 -12.800360657181217
60 -0.6843994500482111 11.11601446662247 16.52143045097592
73 7.5413721622276775 -0.11879936247718323 -1.324484807292025
74 -13.053662170828117 6.590442577969752 -2.1115985169941114
371 -9.556794402700817 -7.9147905852982525 -3.0016592882798228
76 2.105018186338314 -0.960661803864082 4.046725449657973
282 29.66553468089357 8.26100301538239 -6.137678843486912
78 10.317363459954482 -7.3022055571959115 1.2347250062525874
79 3.542426344132051 -1.541992251949731 -1.4022316568103568
80 -3.450144015595423 -3.4278414158918915 -4.921959609818832
367 0.08492716008777147 0.4792151875350053 -6.659948558592824
82 2.2778178839619785 -5.036279309396976 -1.344622558931668
370 3.889181150275192 1.1175975022098754 2.203204587218454
194 12.405770178804392 1.255208249597414 -2.7706492290472595
97 0.3455098256370806 2.8878526974578476 0.02226304226009149
98 -11.809945223961947 0.03104657709097353 -16.418940327255882
99 18.447186148552767 23.444695764095094 -3.691529644975719
100 2.449455419411439 0.7550150448057014 -3.1827606995730937
101 0.9684593464566064 -2.657893170712505 6.709318591275676
102 10.203596577943413 2.1909583507072004 0.18234924622439122
103 0.02696354124028813 0.46848282006424735 1.1891604635010289
104 22.86731359213841 -0.6066385471091242 -3.8027065777901354
105 -6.955809424789712 -0.34761636521182593 -8.420818545486275
106 -0.7556953592554986 -0.8104158395915517 -2.619208989061251
107 -3.80569136243143 -11.693805422420267 17.41581600519254
108 10.671469236048733 8.249770005661238 5.346253388128117
121 -3.9176261412932196 -0.3856793335250449 1.4212438858076895
122 2.032479893415117 6.1662374576200865 19.5590154500083
369 -15.809676090792143 -12.428255741687362 7.900348574096198
124 3.468596192753627 2.886743065318836 7.652802373489265