LAMMPS data file via write_data, version 8 Apr 2021, timestep = 0

768 atoms
2 atom types

-1.0127748691376628 30.956121812591963 xlo xhi
0 14.150994885346662 ylo yhi
0 13.537012283760118 zlo zhi
5.09940614545896 5.060290857187652 3.5520525369411313 xy xz yz

Masses

1 16
2 2

Atoms # atomic

161 2 21.12437490542174 17.138524926362507 11.812567204855426 0 -1 0
75 2 4.357634191664742 11.764724738591203 0.9092565294518565 0 -1 0
295 1 8.349885875792541 5.336519758592083 5.892971968003949 0 1 -1
297 2 9.247025558637286 5.608552433259012 5.656820614604275 0 1 -1
164 2 15.777694404890239 8.70324311443458 5.269748688708292 0 0 0
220 1 13.089014482341291 10.041684662947482 13.254728305156842 0 -1 -1
371 2 4.65062031767559 2.9299132772185983 3.120935303942812 0 1 1
230 2 12.183573034404146 0.40811229454293324 1.505758767205073 0 0 0
352 1 11.075961961933372 6.229381084944297 5.245166501460802 0 0 1
150 2 9.623452717530636 6.954338893833084 2.294563197985693 0 0 1
298 1 12.981249931534617 8.283371765184935 7.404617729595879 0 1 0
100 1 4.853916732087034 7.4612432663002695 10.844196488710942 0 0 0
60 2 7.932465113096415 2.6072243692864054 4.485989389240015 0 1 0
148 1 8.938448153892276 7.493220820848697 2.729727977422739 0 0 1
179 2 6.719742660886471 12.17472680643491 9.031652807327548 0 -1 1
105 2 9.913795479966884 3.070029969514051 8.19223155397945 0 0 -1
467 2 20.69813051830184 10.264078549455657 8.396679232823672 0 0 0
106 1 9.250934544570343 7.565377319137477 11.54545360791411 0 1 -1
162 2 22.61302438383107 17.245842890437075 12.217500119061459 0 -1 0
288 2 22.482586846312735 14.582828143715242 8.933198425208495 0 0 0
58 1 7.356399711547454 3.3906472779967785 4.261095403299068 0 1 0
59 2 7.837101240740853 4.069903462993047 4.748833424334027 0 1 0
149 2 8.139072188656566 7.625121028031829 2.202729362698997 0 0 1
50 2 12.048932165837941 7.247883339961024 1.691371377504524 0 0 -1
247 1 5.596111935468856 11.630119735432524 6.308800260052139 0 0 0
212 2 18.79907897536379 9.84625311911128 3.376968170849856 0 0 0
315 2 3.984129461351671 7.334395532417332 3.4897445704591634 0 0 0
218 2 7.652323143709302 7.23395390056239 12.087581247897875 0 0 -1
351 2 13.336105577923059 4.893581873433846 3.6538309935446858 0 0 0
342 2 4.160364348542716 3.081352696236408 9.11348949186419 0 0 0
337 1 1.9474330461116767 2.19484571445886 7.195562876341076 0 0 0
156 2 6.2805047317277785 11.268708965905791 11.466053055059728 0 0 0
353 2 11.576010811730116 5.395737237335702 5.349366819799201 0 0 1
219 2 6.5915651095861465 7.380208920178285 13.223456029342593 0 0 -1
61 1 9.102276718713522 3.6901008363177525 2.1378659253870795 0 0 0
124 1 2.0336829007202626 7.404717466298653 1.2661822435482406 0 -1 1
92 2 4.239197481383189 4.913412549386018 2.8437115247358595 0 0 0
324 2 14.580418186630567 17.35807489314397 12.32005243973354 0 0 -2
65 2 14.630375093473528 6.004105998401997 9.72709536767535 0 0 0
233 2 15.179680148009753 3.7491715821947165 9.370601597297535 0 0 0
217 1 6.8599475492348265 6.769239434768769 12.49411899284801 0 0 -1
257 2 16.69068365983935 6.761126709176988 8.071133876135333 0 0 0
38 2 17.915020029352984 8.807416522260306 6.050583813868646 0 0 0
94 1 14.003069719378985 8.452620873442951 4.887019843543512 0 0 0
363 2 4.83516422890021 12.541618023896984 4.520558048874201 0 0 -1
48 2 24.826109966210247 17.56571453227911 13.374450682047607 0 0 0
372 2 5.621638591355323 3.4793434514894326 4.1691482237222885 0 1 1
274 1 7.1379950257213425 14.793299788041761 2.9998838424386425 0 -1 1
140 2 5.952459022104212 7.594542749400887 4.915470808543385 0 -1 1
169 1 2.549491495854766 4.559516555814135 6.040897912767837 0 -1 0
63 2 9.751350502808119 3.043683614238102 2.4402812514102705 0 0 0
180 2 7.666561659925242 13.29661179318195 8.63732861244485 0 -1 1
222 2 8.736799782152039 6.03720515215602 0.13311707519471358 0 -1 0
64 1 15.356444945748185 5.4178010943362915 10.054985432878675 0 0 0
111 2 7.674171039841467 2.880920540519043 1.0747711434382952 0 0 1
13 1 14.786155201606956 5.732436779753761 4.290595141159493 0 0 0
62 2 8.387520372219315 3.697299686950124 2.8384243602634287 0 0 0
332 2 10.344843172510148 5.263029721728385 1.7032643394648417 0 0 0
275 2 6.4808625179282116 14.124306340907426 3.222056311121483 0 -1 1
250 1 7.9289849893056426 5.030344593429981 8.549658014046507 0 1 0
368 2 6.725364533202775 6.460313246798514 8.564896229978128 0 1 -1
101 2 5.63315772653452 7.02942528946163 11.295081522161688 0 0 0
349 1 12.533935589973343 4.673570472132486 3.126273663614699 0 0 0
81 2 3.9220416933649034 1.515356568915739 1.1092965337540532 0 0 -1
85 1 13.864216972000198 8.400492862059277 10.908651918974238 0 -1 0
302 2 11.951607546062393 5.630774280140216 9.001754706484428 0 0 -1
301 1 12.840728010305792 5.761112983106391 8.626241041628637 0 0 -1
103 1 10.437343496507998 2.5543217621727883 7.576812452486886 0 0 -1
6 2 11.790813915905424 2.0182471499701586 2.824269685433633 0 -1 0
303 2 12.84189135610279 5.275152857520693 7.777927863064671 0 0 -1
305 2 14.732395502278154 8.557504086371088 8.045577637231547 0 0 0
239 2 18.31408390136947 9.089628920926373 9.068151470640327 0 0 0
41 2 21.79313375510269 10.460899786199647 13.33713098400745 0 0 0
333 2 10.996681850237778 5.826513097034233 0.3051201671324514 0 0 0
346 1 5.804714557926635 3.3382641305211367 9.81169372410167 0 1 0
110 2 6.477897541023503 3.393265332828255 0.34619976009448217 0 0 1
331 1 10.674944744244899 6.011130887566556 1.2367313322480915 0 0 0
9 2 10.771207625135744 5.008975170167271 10.368512845655097 0 0 -1
4 1 11.157741263605836 2.4346683672097438 3.5327098548205127 0 -1 0
8 2 9.880309170210882 6.161321546426338 10.626200741600957 0 0 -1
5 2 11.432426957831217 3.383907158553412 3.5019598818353748 0 -1 0
7 1 10.173317884986924 5.664589363974843 9.951457439484246 0 0 -1
377 2 16.42996218742055 8.459176984799308 11.941947888759985 0 0 0
112 1 14.17227031284158 4.745159825994481 12.93348806746545 0 0 0
304 1 15.555079757874276 8.370922214781224 8.528222912033495 0 0 0
367 1 6.3642547473848445 7.343052315925555 8.538601509655612 0 1 -1
350 2 12.80123251716063 4.852839801923876 2.2375857642193226 0 0 0
113 2 13.876266252127095 3.804277081353721 12.701313333345302 0 0 0
376 1 16.543526410021176 9.320511529088334 12.401768846585638 0 0 0
114 2 13.430530296792266 5.192856833644772 13.347311554630322 0 0 0
66 2 15.185913850513318 5.486686073453646 11.038872431428299 0 0 0
14 2 15.148200718802217 5.385061040906247 5.168489188486585 0 0 0
296 2 7.765280455162633 6.105928469040761 5.692501089148859 0 1 -1
369 2 6.160662882514149 7.5357292771675874 7.59850906046857 0 1 -1
280 1 19.462000261767187 7.842085794003589 9.830006429526726 0 0 0
109 1 6.867819067958992 2.590687559387285 0.6423255918415117 0 0 1
87 2 14.381048466367734 8.247258104192719 10.07175920104402 0 -1 0
184 1 18.784285076613333 6.343289448047984 13.186460385253687 0 0 0
277 1 16.799746580972712 6.252986576697252 2.496264726605021 0 0 0
93 2 3.0853017288077904 4.895456584677908 1.835069792600322 0 0 0
15 2 14.439743901195385 6.604192485202559 4.522774480839901 0 0 0
299 2 12.904011402467644 7.408111095934563 7.835335905730359 0 1 0
107 2 9.851077904204175 7.924536716312373 12.241543438706497 0 1 -1
160 1 16.83770494149763 3.5246388602515295 11.6960451543821 0 0 0
17 2 16.892617542628876 6.424010221836141 10.601259866108936 0 0 0
37 1 18.771868205778404 8.307005605539949 6.221927868893408 0 0 0
18 2 18.164105078425553 7.343658713305824 10.360909307857215 0 0 0
231 2 13.003703572115532 1.581765329387045 0.9715242463445646 0 0 0
104 2 15.996260981446683 16.0250131561839 8.107148396884497 0 -1 -1
205 1 15.004333260883703 2.615243764807926 2.9458584673012767 0 0 0
210 2 17.758611127718435 4.2087510006294435 10.250630309699032 0 0 0
186 2 18.18486078423168 6.53389728874495 12.435758465992327 0 0 0
232 1 15.247610157652508 3.0912702592492303 8.686821793091402 0 0 0
354 2 11.278108605591306 6.44889331958811 4.30577761775517 0 0 1
225 2 10.409816605348345 14.586034973237703 2.514542656123831 0 0 0
183 2 16.68862603940004 5.087174094423125 6.892403335299518 0 0 0
40 1 21.180121479605937 9.818344866088696 13.021399913215216 0 0 0
207 2 14.719923230423001 3.4604324684659207 2.594625293476008 0 0 0
208 1 18.49105961524436 4.383757811071058 9.611336536007693 0 0 0
279 2 16.268315826364105 6.97930485061892 2.0131079958263567 0 0 0
254 2 15.148840626887006 5.2914688099552665 1.0062311786736646 0 0 0
181 1 16.181107586574882 4.407573010336425 6.26420260704714 0 0 0
182 2 15.726824888815743 3.802727843079517 6.876373704046773 0 0 0
256 1 17.39474826143643 6.1643300346133 7.736950010883273 0 0 0
255 2 14.42106594679923 4.04705673431411 0.39234237670389477 0 0 0
253 1 14.525798526653784 4.6104429630909705 1.2268115510170863 0 0 0
157 1 14.105611586597167 2.2702745613517137 5.360027898988693 0 0 0
185 2 19.33713731133734 5.667896251931513 12.807608935758871 0 0 0
278 2 16.177694354918987 6.001892063724715 3.271414449795961 0 0 0
159 2 14.40327570213998 2.3327206682691632 4.438864456241486 0 0 0
16 1 17.33029304612004 7.207683321027466 10.917498406407768 0 0 0
258 2 17.713143369849714 5.634266584718291 8.511282653796897 0 0 0
370 1 4.69159505370328 3.4373356536031836 3.942945178478362 0 1 1
80 2 5.457472032323724 1.7436506331369388 0.9470818950218484 0 0 -1
306 2 16.159027858989944 9.092455244806139 8.5601719909389 0 0 0
79 1 4.741010002827902 1.62805266502254 1.606910025779058 0 0 -1
246 2 9.007148413410349 8.363315385795406 4.1499798150882965 0 0 0
108 2 9.206920140033162 8.17608609669549 10.82128151164265 0 1 -1
300 2 12.025287611378534 8.514824290968617 7.38944034965205 0 1 0
221 2 13.255628926631404 9.895401604252415 12.329221167079107 0 -1 -1
348 2 6.574378647773561 3.8976829709846017 9.52645148345384 0 1 0
251 2 8.807960747899491 5.066187843796622 9.005814245710507 0 1 0
139 1 6.618805731795423 7.532745488155876 5.6305892519645075 0 -1 1
276 2 7.921412166454531 14.504579509351448 3.460143644758583 0 -1 1
313 1 4.728683609319626 7.890920451358184 3.5813861374331104 0 0 0
252 2 8.099497110753806 5.078041267585212 7.58951836509966 0 1 0
91 1 3.8900749994319748 5.461358036963669 2.1172038499947563 0 0 0
195 2 12.934196556555182 3.447290473127 5.914669050571416 0 0 0
229 1 12.810300960133493 1.0728026553449679 1.7798281303576462 0 0 0
194 2 11.706180619841934 3.4905272370820404 6.838117128609171 0 0 0
193 1 12.354283454859894 4.046210126872166 6.356513961833628 0 0 0
141 2 7.387844434563921 8.088448017981964 5.345132474152478 0 -1 1
234 2 14.510960535115842 2.4778592891489835 8.674233897502539 0 0 0
96 2 13.601494319986225 8.332729125178817 5.748495214973016 0 0 0
34 1 12.006359147122437 3.7774661621587096 10.883757167471995 0 1 0
380 2 11.644768291857341 1.2758540780668193 4.835872524384638 0 1 0
158 2 13.362578785905516 1.6330116255535876 5.421170481203438 0 0 0
465 2 18.31956028990991 8.303056798290946 1.5521844839854189 0 0 0
35 2 12.80441481463452 4.138814814571468 10.422751849637374 0 1 0
267 2 14.541820589258602 15.680818955935093 6.0583878265765865 0 -1 0
266 2 13.09561829745177 15.193664617820405 5.932615762719961 0 -1 0
44 2 20.43183699742194 15.662643794463287 6.371672735066369 0 0 0
86 2 12.9950095937608 8.822355923907244 10.527459047386133 0 -1 0
226 1 12.970011292741768 12.196657824714244 4.8399865992698725 0 0 1
77 2 11.88902027757517 12.690237371628026 6.7721926170391775 0 0 0
227 2 12.33953931071296 11.51301266130816 4.590703351723334 0 0 1
82 1 13.452243941710323 13.824139230916478 8.231706628861254 0 -1 -1
166 1 18.825762986237454 10.739254902893306 11.90632459742291 0 0 0
228 2 13.063945478645214 12.865301158635832 4.111442420260658 0 0 1
330 2 11.48475573841984 10.653595141255357 2.7136331535195874 0 0 1
132 2 10.48180712863609 10.193193332828576 7.665674481624886 0 0 1
281 2 20.18000966236097 7.970435953222971 10.477680755640733 0 0 0
120 2 18.078667209606138 13.610984038625821 12.957081357392811 0 0 0
176 2 10.717198152290853 14.363496263977009 10.74981605698818 0 -1 -1
294 2 9.149828425655539 14.923565275151624 9.066193302454092 0 0 1
270 2 6.433806127931769 2.4215960095066373 8.061485665845202 0 1 -1
118 1 17.43122736791505 13.162501965586511 12.373842882183705 0 0 0
322 1 13.9192412503915 16.738721462363557 12.58312582896441 0 0 -2
238 1 17.839873503649134 9.874883996592805 8.696858994767585 0 0 0
127 1 1.6173169574347244 4.435776382074286 1.2751371958820519 0 1 -1
196 1 13.50048352570277 11.235030945921018 0.5487341548190054 0 -1 0
83 2 14.315181834147587 14.172427075846395 7.876288159299039 0 -1 -1
290 2 6.544532506349853 9.020203724003885 1.6283920600310868 0 0 0
334 1 16.058730522871713 13.704305021745698 7.5196784349780375 0 0 0
285 2 19.144973170028138 13.724048608146873 2.1175925515960974 0 0 0
249 2 5.0584984586807655 10.861756537600908 6.47855655951134 0 0 0
147 2 11.498127921752499 12.344367019261435 12.289677233159898 0 -1 1
364 1 6.912110884937492 10.583662782819417 1.7173273404204132 0 0 1
320 2 9.225414590572178 14.451528120538114 5.233284386090813 0 0 0
344 2 13.93242938289467 11.046251751455738 8.167260698075147 0 0 0
242 2 7.571892011000043 12.682389727079144 12.7560894155189 0 1 0
172 1 6.661587755258374 10.674116923683794 9.893987263455246 0 -1 1
167 2 18.16646938665796 10.075035774301975 12.175047300365064 0 0 0
248 2 5.95828174482743 12.018115978729368 7.084934462350164 0 0 0
56 2 13.902311857954889 13.706854672540393 12.629667529691337 0 0 -1
168 2 18.394524736950064 11.582059520795323 12.115155976322054 0 0 0
245 2 8.421554336157017 9.745839921867901 4.6543459453401965 0 0 0
145 1 10.807515461527915 11.669319408560987 12.49292447047076 0 -1 1
57 2 14.002898664088962 12.731720295364173 11.515047450793459 0 0 -1
328 1 11.726474218262593 9.942745625846982 3.4424613026542197 0 0 1
199 1 7.698495722101986 11.453170470186981 4.234921822564347 0 0 1
28 1 11.171904158921729 11.6077366052244 1.7523710645393193 0 0 1
336 2 16.62741844638239 13.987335448298987 6.770470611328688 0 0 0
366 2 7.131740522188603 10.906788999518602 2.5909459204634824 0 0 1
287 2 21.675000176848975 15.951630713077352 9.323741272085874 0 0 0
224 2 12.007284847196981 14.410434887042431 2.8985504519977523 0 0 0
55 1 13.531923174838003 13.559555931246141 11.734023350279442 0 0 -1
216 2 20.048977229416344 11.945241819740142 9.100969064516512 0 0 0
329 2 10.90683647893811 9.711963891145679 3.8844563878758924 0 0 1
33 2 7.803443736692455 8.300360299821396 8.883271929773814 0 0 1
312 2 17.875226452397467 15.24862783106079 9.301654888164576 0 0 0
335 2 16.61134415567733 13.27343968908088 8.23521921594519 0 0 0
97 1 13.732008240175388 14.090537418772795 3.0359443338659315 0 -2 0
268 1 11.524598839338452 15.822169522498498 7.411217292382909 0 0 -1
98 2 14.389965417237944 14.1532093942087 2.3085343155127167 0 -2 0
310 1 18.295560186072557 15.601846545694459 8.499890962749266 0 0 0
273 2 13.799212842102476 16.184975571398454 10.79855332266292 0 -1 0
197 2 14.07251072365557 10.895581981868151 1.2879870843548384 0 -1 0
241 1 8.48355882104145 13.102165685050771 12.662611390155712 0 1 0
345 2 13.05822870620186 12.08279987011429 8.832253334505097 0 0 0
319 1 9.197914357183725 13.637599285499624 4.653605742911663 0 0 0
272 2 13.736061096730499 15.320239455511551 9.529220799574498 0 -1 0
264 2 19.14420985212937 12.637859584112615 7.12731550840426 0 0 0
142 1 15.235825644180307 11.387358823482687 10.979894173505002 0 0 0
263 2 20.37895432575704 13.53298020779789 7.3475801464425725 0 0 0
121 1 2.374512882660473 0.8589345014231258 0.1948826902657305 0 1 -1
269 2 10.608199070081298 15.77397546430366 7.035272675123545 0 0 -1
206 2 15.890161828738071 2.7647827514880303 3.352626990112206 0 0 0
215 2 19.653462334715226 10.914928789465222 10.187498026106395 0 0 0
271 1 14.11797892812206 16.177799889908457 9.875177900519361 0 -1 0
262 1 19.61463373893887 13.195186829833704 7.810355241887201 0 0 0
340 1 3.401744858399459 2.542477710048575 9.22566433948128 0 0 0
192 2 21.520527843255742 13.617856919876992 13.329994037211653 0 0 0
214 1 20.370896812936692 11.19341799465394 9.593002896421972 0 0 0
240 2 18.106039449827954 10.010577350416039 7.726644862367021 0 0 0
321 2 10.026709203328005 13.655406406804449 4.177419284664858 0 0 0
343 1 13.40172096302895 11.215493008636049 8.939440130224105 0 0 0
153 2 14.060511729116303 15.407402571626307 13.495886960942112 0 -1 -1
170 2 3.432466096432983 4.2634753236517735 5.6909867703971955 0 -1 0
291 2 6.353613034770193 7.7467434149662004 0.7641958109280289 0 0 0
173 2 7.3217292302653485 10.104620679783553 9.43319605780893 0 -1 1
51 2 12.329030513517337 8.683571942323823 2.3429984717124213 0 0 -1
200 2 8.149783854832496 12.314190272021781 4.3900617878356964 0 0 1
88 1 11.216242526607255 9.544232705964168 10.46124872424531 0 0 0
198 2 12.638752983181954 11.348684618917085 0.9992448461687303 0 -1 0
84 2 12.733499349152366 14.483795422564517 7.975886565901919 0 -1 -1
152 2 8.266599449746181 10.894935165508778 0.9397458994155613 0 -1 0
311 2 18.853890340732704 14.843470409624219 8.111082965579467 0 0 0
359 2 16.943081259085286 14.55855277155665 11.377691758580525 0 0 0
265 1 13.88295358310786 15.53605476593599 5.430153020321254 0 -1 0
1 1 5.753610853488627 12.479608166885406 0.29816564761259456 0 0 -1
72 2 17.628537920180268 11.376635282401093 9.176610455107681 0 0 0
42 2 20.31974143179932 10.255582243985815 12.735585390584754 0 0 0
177 2 12.114405267025544 14.623349553883855 11.39837090168397 0 -1 -1
190 1 21.185090001190193 12.931492939658327 12.696531203870343 0 0 0
223 1 11.133173179347368 13.994630194954793 2.899789616441353 0 0 0
191 2 22.02147512208385 12.72915575816701 12.147554403052025 0 0 0
382 1 19.430876120397926 16.33148362158765 12.186585692377657 0 0 0
19 1 17.104150411359953 12.272449024865805 3.7799817218994303 0 0 0
20 2 17.95280213102619 12.10535704167766 3.27850267434751 0 0 0
21 2 16.31591339427922 11.956247422251014 3.227627734424726 0 0 0
379 1 17.16344778910578 14.567465799383731 5.138478202583508 0 0 0
43 1 21.259051044296793 15.20617215817947 6.560241129513717 0 0 0
381 2 17.124235872399005 13.929089006102867 4.357489616552894 0 0 0
67 1 15.116002727243535 10.520543273191018 2.8480348342214943 0 0 0
68 2 14.60775405791314 10.417958278665187 3.6380292492151827 0 0 0
69 2 15.218069864050827 9.624365809704967 2.5456359345536663 0 0 0
119 2 16.742869594079185 12.82917666606263 12.875606994635724 0 0 0
146 2 9.92607082872141 12.075634157750642 12.535481068926819 0 -1 1
360 2 15.898729772456152 14.986042635342338 10.402656143761908 0 0 0
115 1 14.820553624690264 11.286609740774662 6.572335978937847 0 0 0
116 2 14.289550685485489 11.684609476130698 5.816707507616709 0 0 0
365 2 6.419939356002283 11.279796428439298 1.251653461079941 0 0 1
136 1 5.595949191392312 4.929488137762829 0.18602645062521445 0 0 1
144 2 14.500590175922813 11.088041896163146 10.392581162349254 0 0 0
383 2 18.976590469071752 15.923560875129933 12.981924385398619 0 0 0
163 1 16.43539433308456 9.432301875798036 5.411984997326171 0 0 0
286 1 22.05816149297625 15.093877573746022 9.646880251585547 0 0 0
165 2 15.949651255111325 10.238761892852233 5.762059017822363 0 0 0
187 1 18.450399935429676 11.59024395839961 6.018549613349168 0 0 0
188 2 19.237973791644773 11.096387342000378 5.678545158825418 0 0 0
189 2 17.94702673609166 11.738924247015953 5.1635951737046115 0 0 0
30 2 10.317777720894684 11.363229998576193 1.2486739630620163 0 0 1
211 1 17.96878016303154 9.649242661980889 2.926280817628095 0 0 0
213 2 17.269025074029322 9.57263610448134 3.5736952289261215 0 0 0
235 1 15.235036065411377 8.178933435716468 1.7513189201637995 0 0 0
236 2 15.567361198398354 8.305740165058817 0.8526883355393954 0 0 0
78 2 10.546434939854143 12.857481214362922 6.090875296178212 0 0 0
260 2 18.063913926896436 11.563457943250548 0.8014100778621148 0 0 0
102 2 5.230473023108048 7.574566498378416 9.955148525431124 0 0 0
259 1 17.231370910110034 11.175777889649767 0.9357750372534759 0 0 0
117 2 15.22927428685823 12.065135302883899 6.915783525345154 0 0 0
261 2 17.351731578568064 10.60668578878579 1.7628627330425723 0 0 0
283 1 19.42993943420587 12.875230307240217 2.482718952448931 0 0 0
347 2 11.285916136985389 16.817908944496654 10.372201114430597 0 0 0
73 1 3.4646287758378955 11.493970349275047 1.0733597987184968 0 -1 0
307 1 15.644340657476691 13.820730786446418 1.0896863292229362 0 0 0
89 2 11.56338560718761 10.249837473685744 9.843883580226382 0 0 0
309 2 15.885206333898106 12.943372648550662 0.7963747419636132 0 0 0
29 2 11.054030915627372 12.475676219681404 2.2226654338071543 0 0 1
49 1 12.66846390582923 7.966272330452944 1.778157428174358 0 0 -1
175 1 11.213440982698726 14.94557744516971 11.345709851398803 0 -1 -1
326 2 3.2555582974042983 1.723025314347009 6.37504036106752 0 1 -1
358 1 16.717930385750265 15.246189325538367 10.72892135235749 0 0 0
289 1 6.529660600143077 8.037573155615405 1.6673243798447455 0 0 0
22 1 19.66244125796599 14.056544257337004 10.770112679807069 0 0 0
23 2 20.3687151313669 14.434133644456907 10.166088652487511 0 0 0
24 2 20.11378183888856 13.494124178945576 11.439647706962079 0 0 0
143 2 15.942720531063772 11.807033078848598 10.425022055216584 0 0 0
46 1 24.188124223740957 16.89682234151702 13.090646633835302 0 0 0
70 1 17.497517774031227 12.32575103052582 9.33633886620379 0 0 0
71 2 18.107963144543213 12.717880434825819 9.99496600262511 0 0 0
325 1 4.084768782130198 1.728389599646247 5.905572537880963 0 1 -1
130 1 10.321507393703653 9.279908365282989 7.379654095499777 0 0 1
151 1 9.118923754995476 11.038532545399312 0.4573073596176537 0 -1 0
201 2 7.1123329915068085 11.343181685961824 5.036653031580139 0 0 1
323 2 13.241669620551571 17.354924638314845 12.91803699700636 0 0 -2
131 2 9.81694439094589 9.15757270851945 6.566663232565876 0 0 1
76 1 10.917497945548538 12.661995605996855 6.978718542036807 0 0 0
327 2 4.010791442748004 2.1868971224938925 5.065827202549452 0 1 -1
32 2 9.232942355525468 8.955232582845392 8.637128620935762 0 0 1
293 2 9.929442272584529 13.630495903690827 8.540286064992959 0 0 1
243 2 8.403209380331925 13.83712133183788 12.002427202848587 0 1 0
31 1 8.502342480472239 8.911286754815334 9.314492736419764 0 0 1
99 2 13.988861924267823 14.618794692956474 3.820947214090312 0 -2 0
384 2 19.635005208967733 15.553091071740472 11.660582053240555 0 0 0
2 2 10.70455417094103 15.840682092201522 12.891568383438514 0 0 -2
122 2 7.079538734870607 5.299685078088462 13.32625597640596 0 1 -2
237 2 14.308340116813953 7.882144581562572 1.610921107609885 0 0 0
314 2 5.292954818289687 7.821343171109941 2.798574968065749 0 0 0
292 1 9.357828107068967 13.984789877854713 9.266995858697182 0 0 1
129 2 1.2442696083209228 3.928487156076729 2.0041476616739167 0 1 -1
123 2 2.187079396278384 0.6670475144969897 1.0847550592721085 0 1 -1
90 2 10.939798145570734 10.104999426689227 11.191381081611944 0 0 0
244 1 9.056912394780875 9.052543790221463 4.808675690300627 0 0 0
308 2 10.208736580676558 0.1974705665355737 0.3529555568833146 0 1 0
137 2 5.0461735545747155 5.213641593713145 0.935955508881844 0 0 1
209 2 18.332508514150376 3.636450292534517 8.94289853754041 0 0 0
378 2 15.981972223518452 9.898372428301997 11.872616757092244 0 0 0
36 2 17.168492715436546 16.972189417770448 10.762872269064372 0 0 0
3 2 5.333225573732753 13.336377747748735 0.35415895828830063 0 0 -1
125 2 2.877483423125036 6.967676666925057 1.5112358140091384 0 -1 1
39 2 18.517545689367857 7.5344116339337095 6.764537735870122 0 0 0
138 2 6.2227309977944865 5.650430145201504 0.05587453191043831 0 0 1
95 2 13.32947007477679 8.751528403447994 4.244780179200819 0 0 0
317 2 1.3856991771280567 2.138131199096499 3.4480074239974594 0 0 0
174 2 5.840819480842924 10.592482835280446 9.384867181952972 0 -1 1
45 2 21.514394339787543 14.569260670209323 5.853686962384174 0 0 0
178 1 6.781499849973959 12.986384020264216 8.434477120383201 0 -1 1
341 2 2.8114622875294213 2.471967778325002 8.454696132819869 0 0 0
11 2 4.2317298160347905 6.6911860747502505 7.699680639626746 0 1 0
282 2 19.89658313418894 7.184674788581025 9.249828652856163 0 0 0
507 2 17.124794888266887 3.2486596213709045 5.089311367693893 0 0 0
74 2 3.412193733986074 10.629958111662075 0.6479109134896611 0 -1 0
134 2 7.722238061365332 15.834560116706934 10.446455595171313 0 -1 0
374 2 3.825284008768012 9.485153533393326 3.7009989893676534 0 1 0
361 1 4.922725112487495 13.348446909619701 3.949482339395905 0 0 -1
459 2 15.32133754478554 1.5913504133448158 1.5770808131085068 0 0 0
728 2 20.710523189056083 13.173196863159093 4.039408875676831 0 0 0
12 2 3.2268376543561565 5.72500583433824 7.221673964565048 0 1 0
338 2 2.0260882664866324 3.0826002477159453 6.782417668903383 0 0 0
385 1 22.267362962092314 5.369262462844591 4.187761056110858 0 0 0
386 2 22.183788464286767 6.2661778681839575 4.5327253778460035 0 0 0
387 2 21.435803763294935 5.284194664297862 3.7003631482492514 0 0 0
409 1 26.214159539220034 8.071923146925434 6.341316374192608 0 0 0
483 2 19.18359366518865 3.979238916565444 6.558225459311646 0 0 0
425 2 36.86077148741422 8.854659726117209 12.198907423758001 0 0 0
461 2 17.752441997873866 2.1025979918443802 7.012449001097369 0 0 0
433 1 19.84168430815929 3.9226394521838306 3.142726676219803 0 0 0
434 2 20.081314951003094 3.069899696016073 2.731251352302939 0 0 0
435 2 19.597286030350936 4.39082165843194 2.34824882271926 0 0 0
602 2 20.864532307725565 0.6556078721066863 1.7129575548498992 0 0 0
52 1 35.23479348484699 5.244211237449948 11.385625191125147 -1 2 0
677 2 22.300245624243313 8.992623737167595 8.388119905487057 0 0 0
481 1 19.96943717892225 4.498591818725256 6.385516963729237 0 0 0
482 2 19.76722971154112 4.921025970642979 5.542902749646131 0 0 0
650 2 25.09332850953386 6.226104529499188 3.4590111904774448 0 0 0
202 1 34.09657172369989 6.249709294590459 4.354599672411171 -1 1 0
506 2 18.23464054775617 3.4012792797397022 3.958515234604819 0 0 0
529 1 21.533486198988296 2.1554111232613287 5.252882659646412 0 0 0
530 2 21.17036948469697 3.0101404769804585 5.523942663556807 0 0 0
531 2 21.878004972451233 2.248162022943183 4.339941372557707 0 0 0
553 1 24.161587109983326 4.619848099905095 6.15330313217826 0 0 0
554 2 23.45809449824825 4.896515375864841 5.537713598354422 0 0 0
745 1 21.669313603225437 7.721982922908388 5.3297355056351785 0 0 0
577 1 23.076947328587543 2.5202890163390608 2.8206431343741376 0 0 0
579 2 22.579155329270293 3.2061829727973543 2.369377747485451 0 0 0
601 1 20.296546703647 1.3978297906562334 1.6884909019033865 0 0 0
666 2 34.93684526664581 8.00431659004747 10.266836478529816 0 0 0
603 2 20.37404560166248 1.7940230660379637 0.7943462125088221 0 0 0
410 2 26.946360406969706 8.589311677217683 6.811623338403501 0 0 0
625 1 22.15026646710559 4.326631474050036 0.861591742461815 0 0 0
627 2 21.559553279187906 4.996954472288424 1.19641874591706 0 0 0
649 1 24.5359449588574 6.120911550196957 2.6433263552289277 0 0 0
578 2 22.999521135990122 1.7433022636681572 2.230590185858854 0 0 0
651 2 23.739925386903938 5.643884822716493 3.027966679242566 0 0 0
673 1 20.73147297387374 6.858492409612138 1.9429366735638889 0 0 0
54 2 34.6426431492941 4.916095465574453 10.627941334237695 -1 2 0
675 2 20.39035052569958 6.924832585318994 2.8365310016754868 0 0 0
697 1 18.469733705523396 4.733825730120628 0.8372458312289425 0 0 0
593 2 32.41104173762638 4.325523611785066 10.38592179781165 0 0 0
318 2 32.61058216706796 3.1385998224367486 4.385457815130966 -1 0 0
746 2 21.43429292078662 7.368063113964676 6.264214760669376 0 0 0
721 1 19.219021447162035 6.551975834917464 4.114117115759388 0 0 0
626 2 22.84230261397484 4.828377057581004 0.39367806373844916 0 0 0
600 2 35.312107999636154 11.39591479160357 10.214080294273609 0 0 0
411 2 25.87040752454314 7.565659697600647 7.1119367465306285 0 0 0
678 2 22.49148939171778 8.196991500532604 9.66103545682743 0 0 0
388 1 24.47990853943731 7.071844785320691 10.813276755780512 0 0 0
389 2 24.15637926020361 7.940646437246419 11.066904389075006 0 0 0
390 2 24.910017208993317 6.6190802477679105 11.542322251206592 0 0 0
412 1 28.86304160320983 9.842034493771765 13.177509364048957 0 0 0
339 2 33.070961108357274 1.873037224896895 6.898952993732977 -1 0 0
436 1 22.409584860767115 5.564737557473842 9.746647993640265 0 0 0
437 2 21.785271948944416 5.1612588658979135 10.383454027556562 0 0 0
438 2 22.85249092276963 6.254394246488564 10.252666529040457 0 0 0
457 1 15.720102782230091 1.004665926580737 0.8889467535663057 0 0 0
654 2 27.801395870844157 7.960271024322549 10.22576068221163 0 0 0
748 1 24.576874809680916 9.466150445449557 12.201252177474217 0 0 0
485 2 17.870926224178376 3.0192431875207464 0.08014853711270435 0 0 1
484 1 22.55216989638883 5.937281236350457 12.939435428475454 0 0 0
508 1 20.44302268455252 4.57308098063601 11.374298313850753 0 0 0
510 2 20.829010367906868 3.7132881564841123 11.514542830173662 0 0 0
558 2 26.46489784909717 6.774370563545343 13.097023767919715 0 0 0
532 1 24.02967351002516 3.8318196447391775 11.747652151884303 0 0 0
533 2 23.728530487986365 4.658388577666951 12.220106157590848 0 0 0
671 2 36.432971946289676 15.627977966057314 8.762320966689465 0 0 0
556 1 26.035693357439758 5.959498921667585 12.668773101467403 0 0 0
557 2 26.78696035654589 5.415874900927105 12.367198013236488 0 0 0
580 1 25.68538503443466 4.435027988117828 9.743632398686598 0 0 0
581 2 24.936554057961203 4.30989923879416 10.359613472188459 0 0 0
582 2 25.63333920567469 5.383199805897566 9.486067940473971 0 0 0
630 2 24.338127559976304 5.926292135927794 7.390418080808156 0 0 0
604 1 22.829553760255155 3.2575493929049992 8.151143598028563 0 0 0
605 2 22.817000474083233 3.9216961090689555 8.833720007675518 0 0 0
647 2 35.567383910029726 13.98448116342912 7.402333968238717 0 0 0
462 2 19.141226640377965 2.113102052858884 7.674053363151323 0 0 0
628 1 24.66500685123026 6.500956435255218 8.13877682927371 0 0 0
629 2 23.963392895034424 7.129835668698215 8.373515615151527 0 0 0
373 1 35.27224481843829 10.327051779076356 3.7563123447719398 -1 1 0
542 2 28.546535198041067 1.5524559504484101 5.467514912221334 0 0 0