LAMMPS data file via write_data, version 15 Apr 2020, timestep = 1145000

1920 atoms
2 atom types

4.7988334637292240e-02 2.4676416665360776e+01 xlo xhi
5.8645291184070913e-02 2.4665759708809116e+01 ylo yhi
-1.2890333147703359e-01 2.2921275331480928e+01 zlo zhi
-8.3098753413741872e-03 -3.7149256933123639e-02 -2.5506655907168808e-02 xy xz yz

Masses

1 16
2 2

Atoms # atomic

1 1 4.3282900648711546e+00 1.9086274655513382e+00 4.2665862200824458e+00 0 0 0
2 2 4.9047166860111195e+00 1.8431088070454977e+00 3.5346117487620217e+00 0 0 0
3 2 4.3534120300009524e+00 1.0450899138021650e+00 4.7753632563263357e+00 0 0 0
4 1 2.7085571880965076e+00 1.7127333167800534e+00 2.0722678434969635e+00 0 0 0
654 2 8.2533148011459243e+00 1.1748006714038024e+01 6.4048910202790621e+00 0 0 0
6 2 3.0688504322580434e+00 1.5573803625920362e+00 2.9632554255526640e+00 0 0 0
7 1 6.2443710056026331e+00 4.6292874178468644e+00 3.7235232467259323e+00 0 0 0
8 2 5.2766713461089214e+00 4.4297195438830137e+00 3.6863755434815446e+00 0 0 0
9 2 6.6779898734264131e+00 3.8642663425268693e+00 4.1813716465172543e+00 0 0 0
10 1 3.3788251289223825e+00 4.5167726815294307e+00 3.3042054264339535e+00 0 0 0
11 2 2.8275157147207852e+00 3.8329936249026750e+00 3.7921785152706113e+00 0 0 0
12 2 2.9405221203901353e+00 5.3368433905748383e+00 3.6449134660518658e+00 0 0 0
13 1 1.4604861463414907e+00 3.1247066283863645e+00 4.9361248371001842e+00 0 0 0
14 2 1.5222122580776181e+00 2.1512880519764006e+00 5.0039059155372749e+00 0 0 0
15 2 1.5579553334428973e+00 3.5418014573342531e+00 5.8433959089482341e+00 0 0 0
177 2 1.0381250948172708e+01 1.2347649871842695e+01 3.3622693766570733e-02 0 0 1
17 2 1.0152525509802415e+00 1.8091471666037928e+00 2.2886280465454898e+00 0 0 0
19 1 4.8791458848740730e+00 3.2686120846043929e+00 5.9165557722275453e-01 0 0 0
20 2 4.0089493737255300e+00 3.0370449775857282e+00 9.9723208369866168e-01 0 0 0
21 2 4.9575795720616416e+00 4.2433075645534490e+00 7.6887859813246351e-01 0 0 0
22 1 1.4933502413244972e+00 4.7829452151855598e+00 1.4882013236913039e+00 0 0 0
23 2 2.3501905570732093e+00 4.5136656022500095e+00 1.9596140332620742e+00 0 0 0
24 2 1.4389917730146629e+00 4.2063414962389523e+00 6.9375174261249184e-01 0 0 0
25 1 4.7511191294104744e+00 5.9187940040820708e+00 8.2328594165564650e-01 0 0 0
26 2 3.8668211997726756e+00 6.0660035587165551e+00 1.1917719896080474e+00 0 0 0
27 2 4.8797328364342736e+00 6.2310683199558952e+00 -7.5685396029122110e-02 0 0 1
1096 1 1.6087402248191882e-01 7.5038696385144750e+00 1.3697131516765353e+01 0 0 0
31 1 1.1029374547407235e+01 1.4271537646270454e+00 4.1567113440407812e+00 0 0 0
32 2 1.1043964146099126e+01 2.3327448760968439e+00 4.5180648686676843e+00 0 0 0
699 2 3.8080447462241490e-01 1.1406973324774494e+01 9.9017882620483277e+00 0 0 0
34 1 9.0015582219908428e+00 1.4721426378131319e+00 2.2131899995741624e+00 0 0 0
1105 1 4.7849042745636687e+00 1.2105315885043694e+01 1.2581654194980413e+01 0 0 0
36 2 9.2613643511673587e+00 2.1684106810088850e+00 1.6531472610748308e+00 0 0 0
656 2 1.1663302403329039e+01 1.2337352316249264e+01 6.6721592672072276e+00 0 0 0
39 2 1.1137663369732900e+01 4.5524819342907108e+00 3.5737602923486707e+00 0 0 0
40 1 9.4830451584068438e+00 4.8682936431314339e+00 3.6144389975182958e+00 0 0 0
41 2 9.0884969727170564e+00 5.0732017725099023e+00 2.7183671048327427e+00 0 0 0
42 2 9.1289958916042053e+00 4.1130449595869409e+00 4.0409860400075592e+00 0 0 0
43 1 7.9534659234792171e+00 2.9808061137469886e+00 5.1836878609245129e+00 0 0 0
44 2 7.5915636071045709e+00 3.4692111120951128e+00 5.9260524059132766e+00 0 0 0
45 2 7.6004221559227716e+00 2.1350178747315578e+00 5.1107656174903733e+00 0 0 0
46 1 6.2017422820098265e+00 1.5557648233580406e+00 2.2980658416061979e+00 0 0 0
47 2 7.1812569903512173e+00 1.6597120495350535e+00 2.3877594127605692e+00 0 0 0
48 2 5.9121597184129779e+00 2.0614234477050921e+00 1.5162847281368657e+00 0 0 0
49 1 1.0813620468898845e+01 3.1130943957722077e+00 6.8065964712899862e-01 0 0 0
50 2 1.1426639331141137e+01 2.5603293259970994e+00 1.1798046576003776e+00 0 0 0
51 2 1.0761324274010194e+01 2.5794875913176778e+00 2.2860966792312574e+01 0 0 0
52 1 7.7155839365334762e+00 4.8117198581295337e+00 1.3788975044074463e+00 0 0 0
53 2 7.6963386086738454e+00 4.0447024372809093e+00 7.5402525545340371e-01 0 0 0
54 2 6.8597588489490047e+00 4.7870707141956323e+00 1.9051728891897679e+00 0 0 0
55 1 1.0891219734849040e+01 6.0696682515160436e+00 5.4181695473986458e-01 0 0 0
56 2 1.0002861549406582e+01 6.4007181833555524e+00 9.5950047086942591e-01 0 0 0
57 2 1.0853466980645191e+01 5.0788911429631165e+00 5.2697971815566924e-01 0 0 0
197 2 1.2209364721019419e+01 8.3243842376251038e+00 1.6382205912925318e+00 0 0 0
1135 1 1.0909523108957211e+01 1.2133431872410261e+01 1.2145489961914624e+01 0 0 0
1608 2 7.3338628778895858e+00 7.7562598958438045e+00 1.9414027782878005e+01 0 0 0
531 2 1.0787626579156983e+01 4.2170286535152748e+00 6.2571534683230450e+00 0 0 0
121 1 4.4515567119583030e+00 7.7117277092969445e+00 4.2695241270635709e+00 0 0 0
122 2 5.2316710616253532e+00 7.7335205919449121e+00 3.6599887076683921e+00 0 0 0
123 2 3.7074939477214235e+00 7.5789921297550995e+00 3.5995798627338247e+00 0 0 0
124 1 2.9267771603563690e+00 7.5837869665757198e+00 2.1240505779928349e+00 0 0 0
125 2 3.3036111802722510e+00 8.0859267357966278e+00 1.3910117186521964e+00 0 0 0
126 2 1.9666162708135564e+00 7.8134361695421992e+00 2.1617628875761459e+00 0 0 0
127 1 6.0263586602607635e+00 1.0804004599946573e+01 3.3225695563198565e+00 0 0 0
128 2 6.2827663377469847e+00 9.9888469145054533e+00 3.7502154233459759e+00 0 0 0
1346 2 3.6138065618315558e+00 1.5999352729358868e-01 1.2651079589255785e+01 0 0 0
130 1 3.4895484842458111e+00 1.0974826311818241e+01 3.5828023606506050e+00 0 0 0
131 2 3.1038325190431437e+00 1.0253227121767969e+01 4.1192027706252876e+00 0 0 0
132 2 2.9867603441058814e+00 1.0980462022010400e+01 2.7775564158796282e+00 0 0 0
133 1 1.5680010868542704e+00 9.0108608069890259e+00 4.7409631149051137e+00 0 0 0
134 2 1.6112020505770202e+00 9.5285295280420641e+00 5.5334975266575048e+00 0 0 0
135 2 8.2541865821899896e-01 9.4435455942698407e+00 4.2423168693056681e+00 0 0 0
637 1 1.2231503845345664e+01 1.0679630319447691e+01 9.2870699196279478e+00 0 0 0
139 1 4.7913439623176668e+00 9.1814480768155811e+00 7.1763258767746307e-01 0 0 0
140 2 4.9167143416629102e+00 1.0110025594969347e+01 8.5704660521768039e-01 0 0 0
141 2 5.4241809466156585e+00 8.8165366482895351e+00 1.3101589843694990e+00 0 0 0
142 1 1.8100652990664421e+00 1.0998617979670366e+01 1.4562574655423786e+00 0 0 0
143 2 1.6732579264990426e+00 1.0320226996935707e+01 8.2051858986244963e-01 0 0 0
144 2 1.8891667479197261e+00 1.1740572232680009e+01 7.6045685217820891e-01 0 0 0
1259 2 8.6408673087351122e+00 1.2334345134983250e+01 1.5695481026612809e+01 0 0 0
148 1 1.7536241372042396e+00 6.3161918464303142e+00 4.6925428971985088e+00 0 0 0
677 2 1.2219617086328213e+01 8.0928570822565984e+00 7.1515895880621771e+00 0 0 0
150 2 1.8125241416820379e+00 7.3127006538745327e+00 4.6716707853513970e+00 0 0 0
151 1 1.0743255921005897e+01 7.5921403375355352e+00 4.2126379157787204e+00 0 0 0
129 2 5.0575465278365526e+00 1.0903668996458041e+01 3.3689136223993952e+00 0 0 0
153 2 1.0880997776063923e+01 8.3733827255780540e+00 4.8770882679006879e+00 0 0 0
154 1 9.1467517191446870e+00 7.6858747678482073e+00 2.0008965617702557e+00 0 0 0
155 2 9.5045942877378309e+00 8.3962154660466357e+00 1.4255911866121118e+00 0 0 0
156 2 9.5533853680366843e+00 7.7788554883072951e+00 2.8786350479118004e+00 0 0 0
578 2 4.0421089198581212e-01 5.6631450806056609e+00 9.6613202056943823e+00 0 0 0
158 2 1.1166425308476910e+01 1.0770782844562376e+01 3.4652143586915516e+00 0 0 0
160 1 9.5780273592094680e+00 1.0653703692895812e+01 3.3993710398750152e+00 0 0 0
161 2 9.1872034416791326e+00 1.0409719004745160e+01 2.5804280916328355e+00 0 0 0
1058 2 2.3397490925800307e-01 3.7292181172820045e+00 1.5429144106732403e+01 1 0 0
163 1 7.5515777237952229e+00 9.1873063530715484e+00 4.8295801169370147e+00 0 0 0
164 2 7.4535484884487540e+00 8.2511689176857388e+00 4.8968492816641618e+00 0 0 0
165 2 8.4940095121730224e+00 9.3268345371532302e+00 4.5884224460799290e+00 0 0 0
166 1 6.4500263671868145e+00 7.6107040304187876e+00 2.3156333145381063e+00 0 0 0
167 2 6.0017776430429333e+00 6.8935055283300946e+00 1.8103468464639350e+00 0 0 0
168 2 7.3658881503084395e+00 7.5418396456390244e+00 2.1667499042617049e+00 0 0 0
169 1 1.0968976798084793e+01 9.4281805488578705e+00 6.5274988511114029e-01 0 0 0
170 2 1.1284511009759997e+01 1.0285427566987805e+01 5.6007377111328349e-01 0 0 0
171 2 1.0833068760771319e+01 9.0492854018200628e+00 2.2814014061422952e+01 0 0 0
172 1 7.8024436619554569e+00 1.0885056226617280e+01 1.3196759342477582e+00 0 0 0
1477 1 1.1908406060229511e+01 4.4113565181113961e+00 2.0918262592831823e+01 0 0 0
174 2 7.8409216972927336e+00 1.0157573600724103e+01 6.8061333594893370e-01 0 0 0
175 1 1.0558628098082913e+01 1.2053190059511715e+01 9.3976219462660038e-01 0 0 0
178 1 7.5632816205197981e+00 6.4449823091181768e+00 5.1186539141170631e+00 0 0 0
179 2 6.7843569675442668e+00 5.9016208462709159e+00 4.8149848995374169e+00 0 0 0
180 2 8.2986279901629167e+00 6.0054647474227858e+00 4.6639978463144587e+00 0 0 0
896 2 1.0967946868442869e+01 5.1032023783874292e-01 5.6401139853874085e+00 0 0 0
1178 2 4.7037541842980612e-01 1.1331232066895494e+01 1.5476560762068964e+01 0 0 0
219 2 1.2866140623788858e-01 1.1452859241413378e+01 3.9976581099648385e+00 0 0 0
1589 2 9.5451829109275543e-01 5.9077782563424810e+00 2.1760600947288626e+01 0 0 0
1619 2 7.6903498655184048e+00 6.0588856944524814e+00 -4.9483808060095724e-02 0 0 1
495 2 5.3793634734320539e-01 3.1159019199909048e+00 1.0387674450416924e+01 0 0 0
1618 1 7.5977813008936002e+00 6.3308721034434017e+00 2.2078100880223335e+01 0 0 0
218 2 4.4990932764687386e-01 1.0948084413283174e+01 2.6342491956523513e+00 0 0 0
655 1 1.0760478024041413e+01 1.2117622016690287e+01 6.3749614325787869e+00 0 0 0
481 1 4.2099601461329144e+00 1.6224032231428875e+00 1.0074261525818191e+01 0 0 0
482 2 4.1898906570167425e+00 8.4491869784600182e-01 1.0688446655875028e+01 0 0 0
483 2 5.0632576234005402e+00 1.4767213723654469e+00 9.5975522824482127e+00 0 0 0
484 1 2.9929709692480686e+00 1.9575547976563974e+00 7.8264512882915547e+00 0 0 0
485 2 3.2861459868303666e+00 1.9964398237798735e+00 8.7888249959622389e+00 0 0 0
486 2 2.0121107923359691e+00 1.9300507810724672e+00 7.8494452561243442e+00 0 0 0
487 1 5.9600374135781378e+00 4.6484292606332343e+00 9.2337550663572792e+00 0 0 0
488 2 4.9869132179765261e+00 4.7738481311543035e+00 9.2018589465718659e+00 0 0 0
489 2 6.1885501866105752e+00 3.9261043818127530e+00 9.7807797941729593e+00 0 0 0
490 1 3.1548106555579878e+00 4.8014051849538637e+00 9.2129218464166556e+00 0 0 0
491 2 2.7693041422207800e+00 4.0083081171588670e+00 9.5400145849879756e+00 0 0 0
492 2 2.7451675340229285e+00 5.5074332629967104e+00 9.7833401302699343e+00 0 0 0
493 1 1.4605987233560349e+00 2.8907306847221252e+00 1.0681332674759611e+01 0 0 0
494 2 1.4697794283013288e+00 3.4646106858644306e+00 1.1500466072859608e+01 0 0 0
1605 2 7.0290608640875094e+00 9.5240976735826059e+00 2.1801232029673621e+01 0 0 0
1613 2 7.9103586921166036e+00 1.1676644647687977e+01 1.7863969393778728e+01 0 0 0
499 1 4.8546470183912724e+00 3.4094871943592966e+00 6.4474587273294635e+00 0 0 0
500 2 4.0588884902404168e+00 3.0342807578687556e+00 6.9122571142991482e+00 0 0 0
501 2 4.7904910018003726e+00 2.8174836890390926e+00 5.6652967866174686e+00 0 0 0
502 1 1.3956488932594981e+00 4.7554775311554778e+00 7.0330089790575840e+00 0 0 0
503 2 2.1054835610623948e+00 4.8722583516703892e+00 7.6750979470078855e+00 0 0 0
504 2 1.5627257778947574e+00 5.3024314671248058e+00 6.2764935385293219e+00 0 0 0
505 1 4.6699096226281460e+00 6.0926531319267729e+00 6.5186914304870216e+00 0 0 0
506 2 4.5047803843976792e+00 5.1664078139192124e+00 6.4721790621531365e+00 0 0 0
507 2 4.6070927977292371e+00 6.3261459227730317e+00 5.5810866532001615e+00 0 0 0
5 2 3.0841027865222324e+00 9.3175342175589260e-01 1.5964179827959459e+00 0 0 0
509 2 1.4391854031466473e+00 1.0813082923359605e+00 1.0646353129820335e+01 0 0 0
511 1 1.0821420159397286e+01 1.6306324036105355e+00 9.6382265040990855e+00 0 0 0
512 2 1.0820178197827371e+01 8.6400105604063715e-01 1.0239544715184227e+01 0 0 0
513 2 9.9369235156714169e+00 1.6681917747462438e+00 9.1764529055602289e+00 0 0 0
514 1 8.9867326492583626e+00 1.4174015383531913e+00 7.8037942324481611e+00 0 0 0
515 2 8.0039121892528602e+00 1.2168173122987538e+00 7.7203164629726801e+00 0 0 0
1571 2 2.6692614530181094e+00 1.1669463532964887e+01 2.1555754497654299e+01 0 0 0
750 2 2.6175310373212604e+00 1.2308323428313484e+01 1.0025438847651941e+01 0 0 0
520 1 9.4562042355641314e+00 4.5693184749584841e+00 9.4353636582389626e+00 0 0 0
521 2 1.0415413154641341e+01 4.5973646148798508e+00 9.3856173797373614e+00 0 0 0
522 2 9.0211809352896442e+00 4.4600145467019807e+00 8.6058276595960930e+00 0 0 0
523 1 7.6433243023490931e+00 2.9550242185531381e+00 1.0587796093916424e+01 0 0 0
524 2 7.6488985143354045e+00 1.9712652751174489e+00 1.0544738311419314e+01 0 0 0
525 2 8.4470730774330089e+00 3.3909652853458909e+00 1.0132598974806246e+01 0 0 0
526 1 6.1130116657036959e+00 1.4446582731630400e+00 7.9061774843891079e+00 0 0 0
527 2 5.5320832908601041e+00 8.5618837841172002e-01 7.4336608166314431e+00 0 0 0
780 2 7.2034806886332978e+00 1.2212412546234894e+01 1.0400852410326792e+01 0 0 0
529 1 1.0688836194608569e+01 3.2473994653179736e+00 6.2103992389887095e+00 0 0 0
530 2 9.8697084883277917e+00 2.9961265719932335e+00 6.6400462803953326e+00 0 0 0
1598 2 1.2081747536291797e+01 1.0849468080551526e+01 2.0075614518169221e+01 0 0 0
532 1 7.6564639010542557e+00 4.5934933327795591e+00 7.2156260474368343e+00 0 0 0
533 2 7.6153881968215869e+00 5.4840819544942736e+00 6.7847813764191649e+00 0 0 0
534 2 6.9639588410610607e+00 4.6539522272933320e+00 7.9335740315605765e+00 0 0 0
535 1 1.0586661443731588e+01 5.9078890485955275e+00 6.3745955561866623e+00 0 0 0
536 2 9.8252469059151828e+00 6.2975420110021867e+00 6.8387548287729283e+00 0 0 0
1464 2 6.8427246492285654e-01 4.5433092372739994e+00 1.9162528588954242e+01 0 0 0
1607 2 5.9473472943137615e+00 7.4906247748354318e+00 2.0192704762904384e+01 0 0 0
614 2 8.7721886811005789e-01 9.5241458109758863e+00 1.0613568646250032e+01 0 0 0
1472 2 1.1621657017521564e+01 1.2996467841344401e+00 2.0857987981933867e+01 0 0 0
1826 2 5.2614626628222654e+00 1.2544846897546871e-01 1.8222358909747175e+01 0 0 0
1612 1 7.5737568847515204e+00 1.1004971134287645e+01 1.8496891873728025e+01 0 0 0
601 1 4.8062329986037620e+00 7.9497362519620811e+00 9.9629590217639894e+00 0 0 0
602 2 5.5815984492494310e+00 7.9584466724567093e+00 9.3608018210343857e+00 0 0 0
603 2 4.8460281639714866e+00 8.5963777187078847e+00 1.0686634217062105e+01 0 0 0
604 1 2.9027928196174400e+00 7.7779537861227777e+00 8.0217820118185799e+00 0 0 0
605 2 3.4761645943109194e+00 7.7945302874393487e+00 8.7705135437519157e+00 0 0 0
606 2 3.3767219358300586e+00 7.2176988695454911e+00 7.3620332322799431e+00 0 0 0
607 1 6.2688873094704620e+00 1.0833501150625350e+01 9.0689844852147825e+00 0 0 0
608 2 6.5407449891025422e+00 1.0978019745065810e+01 8.1037317629848467e+00 0 0 0
609 2 6.8835967247807153e+00 1.0149388122444288e+01 9.3822632124295655e+00 0 0 0
610 1 3.5103981477351454e+00 1.0833432609700955e+01 9.3071944546293484e+00 0 0 0
611 2 3.1859338342663652e+00 1.0490618949822478e+01 8.4534699825437389e+00 0 0 0
612 2 4.4359233923325903e+00 1.0794524970798845e+01 9.1941076737069860e+00 0 0 0
613 1 1.7718813056724336e+00 9.1181437291177296e+00 1.0835062109997690e+01 0 0 0
538 1 7.5611435123977371e+00 3.3841319378533552e-01 1.0429124484907508e+01 0 0 0
615 2 2.3408773247626278e+00 9.6364615935189679e+00 1.0268403948035605e+01 0 0 0
1092 2 2.6721222385550836e+00 1.0952763036291877e+01 1.4311551018938347e+01 0 0 0
618 2 1.1171169334437296e+00 8.0659705466663425e+00 7.8186790554067773e+00 0 0 0
619 1 4.3366429647614311e+00 9.5677326040167756e+00 6.3030623449323375e+00 0 0 0
620 2 4.4106170765474726e+00 9.0099358691750719e+00 5.4659703875112049e+00 0 0 0
621 2 3.5969584389459266e+00 9.2277359847043954e+00 6.8879295505495310e+00 0 0 0
622 1 1.7630164002495432e+00 1.0463807205962903e+01 6.9420136660602507e+00 0 0 0
623 2 1.0068170003329531e+00 1.0286965779140928e+01 7.5235373725227506e+00 0 0 0
624 2 1.6050139547256024e+00 1.1338077605593378e+01 6.5772828932898637e+00 0 0 0
557 2 1.1835104779009916e+01 1.7146529372257751e+00 8.4825106102077381e+00 0 0 0
626 2 4.6617850208279519e+00 1.1182199236487506e+01 6.4875106982600901e+00 0 0 0
628 1 1.7554248335168785e+00 6.4168506463625405e+00 1.0526576716704930e+01 0 0 0
629 2 1.6282783691918714e+00 5.9993143710024599e+00 1.1427592519147597e+01 0 0 0
630 2 1.7098826984619222e+00 7.3890742855792793e+00 1.0634310345198660e+01 0 0 0
631 1 1.0750685237288682e+01 7.6604786218806211e+00 1.0018969463550027e+01 0 0 0
632 2 1.0872226443381741e+01 7.0506181631546463e+00 1.0796338364826530e+01 0 0 0
633 2 1.1382635380409793e+01 7.3598969036596582e+00 9.3338625182931256e+00 0 0 0
634 1 9.0742584433582056e+00 7.6418794226765350e+00 7.9047062732397624e+00 0 0 0
635 2 9.5126160671238384e+00 7.6027540956298845e+00 8.7436292906193742e+00 0 0 0
636 2 8.1226085015579841e+00 7.7341239057153324e+00 7.9879106200770540e+00 0 0 0
1442 2 4.5627422074967745e+00 6.1785753094427420e-01 2.2248867461066673e+01 0 0 0
639 2 1.1269310088281141e+01 1.0626250851633776e+01 9.2028944319822319e+00 0 0 0
640 1 9.5511983177920872e+00 1.0827510349832226e+01 9.3692535685781078e+00 0 0 0
641 2 9.0133206974279911e+00 1.0850060441225455e+01 8.5141768843070924e+00 0 0 0
642 2 9.2064128890807204e+00 1.0061646558073679e+01 9.8160282860337258e+00 0 0 0
643 1 8.1540260582897250e+00 8.7253712847402003e+00 1.0603781978720408e+01 0 0 0
644 2 7.9617443368500647e+00 7.7720816554888286e+00 1.0656995804308467e+01 0 0 0
645 2 7.8749915857489619e+00 9.0244145341933368e+00 1.1495790209928114e+01 0 0 0
646 1 6.2871032314749025e+00 8.0102000409735385e+00 7.8167188836331238e+00 0 0 0
647 2 5.7693973491890418e+00 7.2296865587846177e+00 7.4862648267744296e+00 0 0 0
648 2 5.9076724313445155e+00 8.7109647850360048e+00 7.2975032647829758e+00 0 0 0
649 1 1.0753148163835382e+01 9.2122068984232985e+00 6.3249913739730443e+00 0 0 0
650 2 1.0553072797872685e+01 1.0183457998368416e+01 6.4127343753085944e+00 0 0 0
651 2 1.0079204634135612e+01 8.7115689260815135e+00 6.8857896491382879e+00 0 0 0
652 1 8.0481470315299539e+00 1.0922691008032810e+01 6.9188280602023617e+00 0 0 0
653 2 7.6356497500314422e+00 1.0368892989735524e+01 6.2651938144712176e+00 0 0 0
1117 1 1.1946845740321210e+01 1.0496604330489115e+01 1.4955156170330861e+01 0 0 0
1089 2 4.9811751987569401e+00 1.0775540610913243e+01 1.4901056196348117e+01 0 0 0
658 1 7.8060081569697291e+00 6.0524878682351302e+00 1.0816346435167494e+01 0 0 0
659 2 6.9740367868449686e+00 5.7657726009256729e+00 1.0407698714095474e+01 0 0 0
660 2 8.5279228338416040e+00 5.7417312421254501e+00 1.0271304871809937e+01 0 0 0
1610 2 1.0802898902733240e+01 8.9509473451864032e+00 1.6819595070541183e+01 0 0 0
1604 2 8.5539935088933046e+00 9.3911116074694281e+00 2.1748570119203624e+01 0 0 0
145 1 4.7517055708906524e+00 1.2108011608566162e+01 8.1088679673702180e-01 0 0 0
1857 2 1.1435825506346703e+01 3.6478704140689405e-01 1.8385588118774457e+01 0 0 0
1614 2 8.3574737559237615e+00 1.0751840939822630e+01 1.9041807979093338e+01 0 0 0
1611 2 1.1553196696891037e+01 9.2252918706494977e+00 1.8182503740836665e+01 0 0 0
616 1 9.8573363383154478e-02 8.1687613216771080e+00 7.7975012932782892e+00 0 0 0
1616 2 1.0800855803773070e+01 1.1325608141279950e+01 1.8168710914415797e+01 0 0 0
1133 2 7.6751558803045361e+00 1.1485338372130881e+01 1.2379986351435653e+01 0 0 0
1376 2 1.1369463333931604e+01 4.8172423551019267e-01 1.2453774039762326e+01 0 0 0
961 1 4.9567015661739546e+00 1.4613281715052775e+00 1.5550922904180956e+01 0 0 0
962 2 5.0456246534166693e+00 2.3548781011074817e+00 1.5992325405874180e+01 0 0 0
1456 1 1.2560369774913399e-01 1.5490101412021327e+00 1.9079780657506060e+01 0 0 0
964 1 2.7805861403952461e+00 1.9329967732841724e+00 1.3669032345056827e+01 0 0 0
965 2 3.4951860258941165e+00 1.7216527730347029e+00 1.4260642003379369e+01 0 0 0
966 2 3.1619845332605001e+00 2.5633259719265817e+00 1.3034342661257391e+01 0 0 0
967 1 5.9895603933590609e+00 4.7282305697724594e+00 1.5096015643248855e+01 0 0 0
968 2 6.5501407354115404e+00 5.4110339848569557e+00 1.5596687598647163e+01 0 0 0
969 2 6.3987351406777142e+00 4.6474828155183285e+00 1.4175380227460259e+01 0 0 0
970 1 3.3180598319164671e+00 4.7991457324277871e+00 1.4790832055783126e+01 0 0 0
971 2 4.2982185268668349e+00 4.8323613677807744e+00 1.4885315890992896e+01 0 0 0
972 2 2.9315333947322202e+00 5.2461900206419312e+00 1.5544497731275595e+01 0 0 0
973 1 1.6227805362589756e+00 2.8433862860198871e+00 1.6446611903841635e+01 0 0 0
974 2 2.4657776973158909e+00 2.9615745822260950e+00 1.6031506666644614e+01 0 0 0
975 2 1.6877778025098447e+00 3.3975505359884539e+00 1.7240399593966451e+01 0 0 0
558 2 1.2114260536671672e+01 2.3736795641084205e+00 7.0613701617117206e+00 0 0 0
977 2 1.2979730292952862e+00 1.7217572445200127e+00 1.3666983175001983e+01 0 0 0
979 1 4.4055142751687404e+00 3.3693929795978774e+00 1.2109780434334075e+01 0 0 0
980 2 4.3910661469066854e+00 2.7500312642569300e+00 1.1315652417905035e+01 0 0 0
981 2 5.1582812479369213e+00 3.0048173091039860e+00 1.2655862698620618e+01 0 0 0
982 1 1.5764530154693039e+00 4.8053539614797849e+00 1.2849293052363256e+01 0 0 0
983 2 2.3294661531772176e+00 4.8121782209833581e+00 1.3476885531222214e+01 0 0 0
984 2 7.5910339985980280e-01 4.6523700548990492e+00 1.3437496271635659e+01 0 0 0
985 1 4.4382585867092157e+00 6.0858021643685323e+00 1.2185062785151958e+01 0 0 0
986 2 4.5899100298576796e+00 6.6211153329116614e+00 1.1403224185833269e+01 0 0 0
987 2 4.2677270976540296e+00 5.1243626947822101e+00 1.1817808878877401e+01 0 0 0
1518 2 1.2201965844912390e+01 2.3800807910932091e+00 1.9011798224845908e+01 0 0 0
989 2 1.4305882803964600e+00 9.6134354391263954e-01 1.6477921483054978e+01 0 0 0
991 1 1.0572607745573013e+01 1.2982865465415852e+00 1.5814886284453317e+01 0 0 0
992 2 1.0485786311389070e+01 4.9212379762879083e-01 1.6400076252652010e+01 0 0 0
993 2 9.7819305413496771e+00 1.3162833616353615e+00 1.5203026583595237e+01 0 0 0
994 1 8.9116888520939170e+00 1.4180873199506627e+00 1.3599677995138455e+01 0 0 0
995 2 9.3920389861107552e+00 7.4153477560930547e-01 1.3059287264756586e+01 0 0 0
996 2 9.2842158102488135e+00 2.2358810920624697e+00 1.3213722522503797e+01 0 0 0
37 1 1.2155368156852434e+01 4.4662959287213377e+00 3.7029870615991753e+00 0 0 0
998 2 1.0991920991546341e+01 4.3183008104630343e+00 1.4883801223398207e+01 0 0 0
1000 1 9.3203630223400502e+00 4.4212385898839992e+00 1.5079245510321513e+01 0 0 0
1001 2 8.7273268665523176e+00 3.7316004766523831e+00 1.5599676663078524e+01 0 0 0
1002 2 8.8431185602861255e+00 4.5823509870840686e+00 1.4217423038322302e+01 0 0 0
1003 1 7.3766968928373116e+00 2.9214365686571573e+00 1.6444593852072813e+01 0 0 0
1004 2 6.5487693982919675e+00 3.2421567815854990e+00 1.6094398952379244e+01 0 0 0
1005 2 7.5658976756511809e+00 3.4391505324647591e+00 1.7280818482449316e+01 0 0 0
1006 1 6.1864660265761007e+00 1.4777508263979497e+00 1.3380644158599805e+01 0 0 0
1007 2 5.9281904218399273e+00 1.4775463322991460e+00 1.4318798449752395e+01 0 0 0
1008 2 7.1517732932905504e+00 1.3249985739927850e+00 1.3268551968656364e+01 0 0 0
1009 1 1.0416144220945233e+01 3.3118312057614649e+00 1.1884016700454852e+01 0 0 0
1010 2 1.1089065718406308e+01 2.9942636331905432e+00 1.2524008711764669e+01 0 0 0
1011 2 1.0521590284667148e+01 2.8144998253050395e+00 1.1030735387974580e+01 0 0 0
1012 1 7.6311307560180044e+00 4.3683177842043071e+00 1.3028277730680314e+01 0 0 0
1013 2 7.6215282834764952e+00 3.5887578384855363e+00 1.2385196244566137e+01 0 0 0
1014 2 7.7036032289256751e+00 5.1056412408642435e+00 1.2359081513455134e+01 0 0 0
1015 1 1.0712021903466185e+01 6.0715655258040835e+00 1.2114011844418410e+01 0 0 0
1016 2 1.0826765353645380e+01 5.1669754656591520e+00 1.1825367231789464e+01 0 0 0
1017 2 1.1318344791452056e+01 6.2852332417131374e+00 1.2793834811650489e+01 0 0 0
35 2 9.5526967194100152e+00 1.5299597089439900e+00 3.0497569966451645e+00 0 0 0
1019 2 7.6059461730249156e+00 1.2390324884890227e+00 1.6520305438222838e+01 0 0 0
1109 2 7.0806310179263499e-01 5.9023095351217165e+00 1.5895298770603098e+01 0 0 0
1602 2 8.8070934855279468e+00 1.1584196550915404e+01 2.1113209071252673e+01 0 0 0
1081 1 4.6728575043017262e+00 7.6988686147721799e+00 1.6070414980701099e+01 0 0 0
1082 2 5.3030291828340621e+00 7.5127217015877870e+00 1.5343609417135111e+01 0 0 0
1083 2 4.8613017086050192e+00 6.9573333854868062e+00 1.6699867126136276e+01 0 0 0
1084 1 2.8379482170104655e+00 7.7584570816807332e+00 1.3800564008624089e+01 0 0 0
1085 2 3.1830148835762286e+00 7.5840342923579263e+00 1.4731623069254908e+01 0 0 0
1086 2 3.2538734404803269e+00 6.9780300525138319e+00 1.3372135950507646e+01 0 0 0
1087 1 5.9421391085144197e+00 1.0840518229355691e+01 1.4935090448830804e+01 0 0 0
1088 2 6.2740567944179828e+00 1.0139350720604069e+01 1.5515505399549408e+01 0 0 0
678 2 1.1903356997212205e+01 6.6737324385732535e+00 7.2003570330649813e+00 0 0 0
1090 1 3.3090541929306037e+00 1.0776486316621456e+01 1.5057830820717658e+01 0 0 0
1091 2 3.0515518143758409e+00 9.9459536896017582e+00 1.5475078559054150e+01 0 0 0
1638 2 1.1978455587622239e+01 7.9086816296703537e+00 2.0052636004299330e+01 0 0 0
1093 1 1.6476164154331325e+00 8.9404113046740488e+00 1.6660029103676880e+01 0 0 0
1094 2 1.6476696199830709e+00 7.9631692050658440e+00 1.6545482726799030e+01 0 0 0
1095 2 9.4448721308841210e-01 9.4338464951915988e+00 1.6139757622781289e+01 0 0 0
1576 1 2.0612283641263979e-01 7.9427048264133973e+00 1.9452887973568778e+01 0 0 0
1097 2 1.1033179517560432e+00 7.5801839783152234e+00 1.3956853490566031e+01 0 0 0
1099 1 4.7061320870849084e+00 9.4814890867287787e+00 1.2270281671356612e+01 0 0 0
1100 2 3.9204848205492873e+00 9.1598386107873324e+00 1.2704958836097358e+01 0 0 0
1101 2 4.7250121628477686e+00 1.0426208593339531e+01 1.2469254012287372e+01 0 0 0
1102 1 1.6597567684423395e+00 1.0923857849035885e+01 1.2933178759301354e+01 0 0 0
1103 2 1.6916718320780451e+00 1.0196037354407817e+01 1.2313525782789933e+01 0 0 0
1104 2 9.0828273480292265e-01 1.0846039385842413e+01 1.3591734167474316e+01 0 0 0
976 1 2.8215405728761450e-01 1.6024250762167374e+00 1.3699945586465553e+01 0 0 0
1108 1 1.3066913196094934e+00 6.3610157486576311e+00 1.6548593727062059e+01 0 0 0
1468 1 1.4765313996618765e+00 2.4986533088552476e-01 2.2158002854708350e+01 0 0 0
1110 2 1.2495057674958696e+00 5.8757200024559610e+00 1.7407507665033755e+01 0 0 0
1111 1 1.0627188819247353e+01 7.6874600293541437e+00 1.5631326310115375e+01 0 0 0
1112 2 1.1474748057961714e+01 7.7428909337831175e+00 1.5061699151834585e+01 0 0 0
1113 2 9.8938951724175599e+00 7.6958417651354232e+00 1.4960378995236248e+01 0 0 0
1114 1 8.9880197124386481e+00 7.7851094669312797e+00 1.3478627220839273e+01 0 0 0
1115 2 9.3124224504428241e+00 7.0101586209097366e+00 1.3014362330479866e+01 0 0 0
1116 2 8.0354959239659607e+00 7.8559812804068674e+00 1.3626460254937873e+01 0 0 0
33 2 1.1660310213382990e+01 1.4757038547624863e+00 3.3761562256246664e+00 0 0 0
1120 1 9.3929882477479545e+00 1.0560558962340183e+01 1.5001805580472986e+01 0 0 0
1121 2 8.9275690411380406e+00 1.0671186078668086e+01 1.4154100827360857e+01 0 0 0
1122 2 1.0374855235276838e+01 1.0477381511244626e+01 1.4900944005412320e+01 0 0 0
1123 1 7.6878458364874200e+00 8.9939627668145690e+00 1.6264647885987721e+01 0 0 0
1124 2 8.3848914247752244e+00 9.5187022935936429e+00 1.5825389797405151e+01 0 0 0
1125 2 7.5591786798030904e+00 9.4766060634350406e+00 1.7082887566673570e+01 0 0 0
1126 1 6.1456419196787211e+00 7.6039926609865303e+00 1.3838475550134111e+01 0 0 0
1127 2 5.6885470747044140e+00 6.9011851969363258e+00 1.3512200752825532e+01 0 0 0
1128 2 5.7919158687392214e+00 8.2220016673424539e+00 1.3179240068785145e+01 0 0 0
1129 1 1.0947063382697090e+01 9.3478920614627139e+00 1.2504453093567554e+01 0 0 0
1130 2 1.0044034344756998e+01 9.0066210801673936e+00 1.2643262362062467e+01 0 0 0
1131 2 1.1170906200940783e+01 9.3336911063454071e+00 1.1547023296229412e+01 0 0 0
1132 1 7.7390001758866962e+00 1.0622951300244605e+01 1.2896196030388095e+01 0 0 0
517 1 1.2137850581516012e+01 4.6999015540803271e+00 9.3048555893495983e+00 0 0 0
1134 2 7.0570850496238533e+00 1.0738952723860216e+01 1.3571002980158315e+01 0 0 0
516 2 9.5362610793212497e+00 8.7515134643410897e-01 7.2527410954173686e+00 0 0 0
1137 2 1.1216301934801036e+01 1.1283397196265176e+01 1.2510319204674955e+01 0 0 0
1138 1 7.7930274279178358e+00 6.2496073005475949e+00 1.6501422613677626e+01 0 0 0
1139 2 7.8309386991017256e+00 7.2132541936448318e+00 1.6317152851220118e+01 0 0 0
1140 2 8.4742462055993695e+00 5.8395482716275655e+00 1.5956306253477859e+01 0 0 0
1038 2 1.1898672264158302e+01 1.5018986301917809e+00 1.4410320809961460e+01 0 0 0
1827 2 3.6644034865497823e+00 4.3907432704116633e-01 1.8125314404769927e+01 0 0 0
269 2 2.2507882993787258e+00 1.2232795707931512e+01 4.4357646295649138e+00 0 0 0
1347 2 5.0901658770212261e+00 4.0015494910251131e-01 1.2687760487246560e+01 0 0 0
162 2 8.9726574686624936e+00 1.1337350155310803e+01 3.7870463262696585e+00 0 0 0
865 1 4.1934631522621322e+00 7.7388659460688833e-02 6.1390436614062338e+00 0 1 0
1606 1 6.3952259773974687e+00 7.5398014841059897e+00 1.9345272704511181e+01 0 0 0
1018 1 7.9147652398496069e+00 3.5438165089069656e-01 1.6328056344814275e+01 0 0 0
537 2 1.0683313520187033e+01 6.3876504370969309e+00 5.5590594275004213e+00 0 0 0
1441 1 4.6753495940931620e+00 1.3855226807159455e+00 2.1654743725716944e+01 0 0 0
1658 2 2.5649922432140898e-01 1.0905097603180154e+01 2.0153118441925070e+01 0 0 0
1443 2 4.7788174420206850e+00 2.2169245306612879e+00 2.2173658788303893e+01 0 0 0