LAMMPS data file via write_data, version 8 Apr 2021, timestep = 1693000

1008 atoms
2 atom types

0.21090258553516172 18.188652414464254 xlo xhi
0.03358882329358552 22.536800176706087 ylo yhi
0.2234531584672665 19.282262841530958 zlo zhi
0.21832845396677042 -7.006633540061805 -0.18163577561590155 xy xz yz

Masses

1 16
2 2

Atoms # atomic

1 1 6.245111343242884 0.9023968354653458 5.097551760585551 0 0 0
3 2 6.2398201862221 1.4306753010328968 4.242221194341288 0 0 0
4 1 3.6343471839367005 1.1528449200807578 5.201918592868704 0 0 0
5 2 4.605352144657991 1.066281047159111 5.280812794870142 0 0 0
6 2 3.4055135675095816 1.6130978530220605 6.080371795796547 0 0 0
7 1 -0.9601316778027146 6.555569633932584 4.912392003699693 0 0 0
8 2 -0.7903698365304751 6.370387256013375 5.847910183584304 0 0 0
10 1 1.984041916902004 6.412603099592399 4.683372268796161 0 0 0
11 2 1.061697800956332 6.772807013417364 4.678903324707943 0 0 0
12 2 2.5204897325285462 7.251089742771088 4.705281438527278 0 0 0
14 2 5.044297739065848 5.369997715033201 8.762711054987857 0 0 0
18 2 5.706962937288361 5.1919900317973875 1.3418873606018011 0 0 0
21 2 0.9489340859906027 2.569858158119713 1.306973030903099 0 0 0
25 1 4.845188018943744 6.123933127445476 7.250438937511057 0 0 0
26 2 5.441164796188416 6.863313720717261 7.498520931427008 0 0 0
27 2 3.8841410474167195 6.493365749974034 7.36063308792986 0 0 0
28 1 5.911712060506219 6.647953897577389 2.3637902400175843 0 0 0
29 2 5.747699598651414 6.3147276658642655 3.2682374368947666 0 0 0
30 2 5.128479358909494 7.177557078559104 2.066373133834863 0 0 0
31 1 1.0400383442679657 1.3769557397188281 2.601091802407221 0 0 0
33 2 1.0751030658219132 1.5598790202998751 3.622385179726168 0 0 0
34 1 0.2464185383459142 1.0256407667493976 7.413818134790297 0 0 0
36 2 0.3503775852688473 1.85424516901743 7.9034589541235345 0 0 0
37 1 6.104721123263113 2.2458996045243533 2.8061949427682773 0 0 0
38 2 5.172987671702107 2.581981620854727 2.809334832260786 0 0 0
39 2 6.749004764679733 3.0412820825868176 2.8571467184607022 0 0 0
40 1 3.8178371859609452 2.5453243386601643 7.345028799327784 0 0 0
41 2 4.799514178443673 2.825159971623641 7.166820818459902 0 0 0
42 2 3.2170620407256845 3.3281864598634536 7.174527708869405 0 0 0
43 1 -0.45172481211031346 5.115006644024094 7.328045663087948 0 0 0
44 2 -1.0611449294967952 4.433214024682851 6.961458731198492 0 0 0
45 2 -0.7927854142395231 5.543062360745467 8.168000928927377 0 0 0
46 1 1.6150669703046443 4.764619145933287 2.467210915163573 0 0 0
47 2 0.7023207235267677 4.497322895279739 2.713960398317597 0 0 0
48 2 1.8928097113388405 5.422127928512978 3.102027896803075 0 0 0
49 1 6.368102794828826 3.417272897027552 6.357769629288003 0 0 0
50 2 6.102265396806053 4.07121125620315 5.677989361602581 0 0 0
51 2 6.533836866654216 2.6001754134178365 5.852348174845603 0 0 0
52 1 3.6242145958177483 2.9390945238866863 3.2220500811894563 0 0 0
53 2 2.8205194659561252 3.255048718977301 2.8293905667830366 0 0 0
54 2 3.454994778183377 2.25064876245688 3.9809683897402235 0 0 0
57 2 -0.27887021464739586 3.2884481361419273 4.247082347587339 0 0 0
58 1 1.9325190631978373 4.331282870291547 6.316361343620745 0 0 0
59 2 2.1788029121158172 5.02467458713165 5.6583225047561445 0 0 0
60 2 1.1265036056136 4.631714070549476 6.735169491560863 0 0 0
61 1 8.546711027239068 6.923537102526223 1.765372848154408 0 0 0
62 2 7.6715713946006865 6.577203015545103 1.9391437723715048 0 0 0
64 1 2.272005611365838 6.9988858131916745 8.294975527768045 0 0 0
65 2 1.555130670117299 7.452255852041722 7.785267459779338 0 0 0
66 2 2.4404456926737943 7.771844064140187 8.909012815840319 0 0 0
72 2 3.810191519817379 1.1140535875616309 1.1241184350599325 0 0 0
73 1 5.145353088117652 5.166729807824628 4.625951317969419 0 0 0
74 2 5.025414255917003 5.650489717019651 5.44398287304553 0 0 0
75 2 4.332183258228862 4.626561864878895 4.333589877918837 0 0 0
76 1 0.8808612776796096 2.3027784671598646 5.031242618727065 0 0 0
77 2 0.5603579150239733 1.6360058021566775 5.706346885292869 0 0 0
78 2 1.392618508462229 2.941411989648418 5.505902509404209 0 0 0
91 1 8.41312898155972 6.537959876433543 4.959797866811534 0 0 0
92 2 8.123380740474396 6.028323915115052 4.177837601041455 0 0 0
93 2 9.448208683851751 6.5153779991920295 4.784486297487832 0 0 0
94 1 10.928322179433088 6.352044640259168 4.651805047614198 0 0 0
95 2 11.562209186210312 7.052967736880418 4.994343322008002 0 0 0
96 2 11.13665856327931 5.4851244455007775 5.111135138882576 0 0 0
115 1 10.369220044675131 0.9668353887738222 2.685991688250448 0 0 0
116 2 10.254471765939634 1.748541504696091 2.0952644096407345 0 0 0
118 1 9.105292152065296 1.0486381420634558 7.276002785158911 0 0 0
119 2 9.377296225060485 1.7085096314523365 7.934825126065807 0 0 0
120 2 9.210437729299183 1.5328052703374375 6.408636395930435 0 0 0
127 1 8.527529474676715 4.986560480410924 7.394875130996318 0 0 0
128 2 7.729711904892009 4.484711956950114 7.125653580387805 0 0 0
129 2 8.45687759129642 5.789887916298921 6.826028887745443 0 0 0
130 1 10.866839650227222 4.786270000383903 2.3440286575711946 0 0 0
131 2 11.704598317066047 4.2476561980351075 2.617664051466631 0 0 0
132 2 10.931867167370624 5.495084666863756 3.0327042142894993 0 0 0
139 1 8.387514522522292 3.8687242103922865 3.0482946827858917 0 0 0
140 2 9.139124144022777 4.145511354106397 2.4485768280980165 0 0 0
141 2 8.790171586354477 3.1579257382938217 3.6631576458265878 0 0 0
142 1 10.966740266955144 4.049507476490091 6.175285215271888 0 0 0
144 2 10.296125361284325 4.481503465555341 6.715244037837363 0 0 0
148 1 11.103213431974064 7.028891467626852 8.083699869105171 0 0 0
149 2 10.775106242990544 6.252272036295888 8.519914696209284 0 0 0
153 2 5.974327631682478 0.8886723254600947 8.91869114599925 0 0 0
155 2 12.964620056891427 1.4752816160476223 1.4270657233561472 0 0 0
160 1 9.527298516621997 2.2095435390831373 4.853561336328609 0 0 0
161 2 10.154056597612717 2.7856920101725753 5.247339052261211 0 0 0
162 2 9.963068514595575 1.6172440875779293 4.205902703037218 0 0 0
169 1 6.389244381020987 8.222496160331682 5.2489127285386 0 0 0
170 2 7.044958661658926 7.523896766060591 5.030152380081595 0 0 0
171 2 6.687382161035429 8.765849205593081 5.978574781618097 0 0 0
172 1 3.6696733201193754 8.41023444317855 5.2295546513522675 0 0 0
173 2 3.673913949222549 9.046948047242298 4.472724803687369 0 0 0
174 2 4.677620957452992 8.255679956001236 5.270293942040089 0 0 0
192 2 0.7534028643334361 9.802801952313388 8.5807187905351 0 0 0
199 1 1.2431515359160827 8.733412220766564 2.702214950037492 0 0 0
200 2 1.180504292748041 9.36190884873645 1.9010678328623127 0 0 0
201 2 0.6314046226600143 8.086082954490273 2.330357291608552 0 0 0
202 1 0.39767508876421187 8.658325842520993 7.37804724639651 0 0 0
203 2 -0.5490289333190964 8.366200525838893 7.421781906220351 0 0 0
204 2 0.4664015061962385 9.011915379868217 6.456876513269023 0 0 0
205 1 6.673353729660518 9.984325169117461 2.7086007909910994 0 0 0
206 2 6.531675199502432 9.23663670263516 3.3542400018088783 0 0 0
207 2 6.8112454150279715 9.52213579232704 1.801229965391525 0 0 0
208 1 4.225666155816978 10.19453856510915 7.322428311446523 0 0 0
210 2 4.114276725408022 9.676998224899737 6.527931129712089 0 0 0
238 1 3.788439639877324 8.255675856624336 1.7037621078551732 0 0 0
239 2 3.023511929988764 8.189574706363494 2.323175903596478 0 0 0
240 2 3.8992571118000083 9.12083130694567 1.2856480527300957 0 0 0
244 1 0.5541336761150719 9.834174542224774 5.0037790046785275 0 0 0
245 2 0.9668026837988449 9.347421403173039 4.28011382733241 0 0 0
272 2 9.951524549179725 9.866526121715276 0.9654481967726507 0 0 0
276 2 9.395902600093699 9.786701735552123 9.002167843619958 0 0 0
283 1 10.553717315751532 8.616138674083325 2.6478618093218222 0 0 0
284 2 10.352444927593291 8.907246380835103 3.524841673081207 0 0 0
285 2 10.024462774440892 7.705343338788487 2.5689070833779555 0 0 0
286 1 9.027067212250893 8.576671904255946 7.511479427463843 0 0 0
287 2 9.74600630165385 7.96073800750687 7.684442682373264 0 0 0
288 2 8.251748546168956 8.101641413077846 7.839348212717469 0 0 0
319 1 6.650228216940378 7.987665034372205 8.477733577978851 0 0 0
320 2 6.445669883232632 8.745421344845155 9.112904982409402 0 0 0
321 2 6.868054505788081 7.261503055929723 9.106048003980588 0 0 0
322 1 12.782798246699429 7.80107255200109 1.5669926068623694 0 0 0
323 2 12.089997981905945 8.181376482034432 2.1279976006610863 0 0 0
324 2 12.267665588179225 7.146142385733704 1.0045529178933248 0 0 0
328 1 9.842431179203317 9.7412770809652 4.91151831697245 0 0 0
329 2 9.411458991567264 9.4388533349583 5.772063956809471 0 0 0
330 2 9.176910848502338 10.362696159923912 4.619706547989684 0 0 0
246 2 1.2280042676556375 10.577657393943358 5.380848150527203 0 0 0
89 2 12.713113441733755 1.8767285379438177 4.413545448714548 0 0 0
136 1 12.728733093689115 3.302032558967984 3.5850245023793708 0 0 0
138 2 13.634648501464238 3.1689185995132507 3.2509429534705707 0 0 0
143 2 11.706498324545967 3.699696659700374 6.670971232128107 0 0 0
585 2 3.436540471787346 1.6988123216889763 8.706006142118378 0 0 0
83 2 1.7494234324238338 5.506722401081375 1.0030515207405313 0 0 0
671 2 8.276706212687987 5.1794977030392655 9.047949205119538 0 0 0
219 2 6.084805721507417 10.598063342520856 7.025331259383048 0 0 0
80 2 6.509397094244307 1.8461940911992951 0.9633280621842997 0 0 0
156 2 12.179266392987786 0.653030780373132 2.509197978508548 0 0 0
63 2 8.867778055139775 6.2335074484898625 1.130456485239458 0 0 0
154 1 12.945255706748682 0.6575395507497142 1.9048265529744712 0 0 0
32 2 1.9278398869708773 1.1323362276643354 2.3462059392640264 0 0 0
151 1 6.327398517431422 0.14888278278593112 8.42718731660541 0 0 0
753 2 4.026017833972976 9.420095156202754 8.804279548049168 0 0 0
70 1 3.378909933784652 0.32833834373949755 1.5428039423508275 0 0 0
117 2 9.606454287086155 0.4403133381165668 2.4116472326918856 0 0 0
35 2 -0.6630560885983042 0.7239948319111934 7.627862626546409 0 0 0
167 2 11.149961888486548 5.431619433554127 0.649166706882052 0 0 0
69 2 14.988875903848937 0.14446125270188706 7.791807897302895 0 0 0
187 1 1.2743617142192893 10.304833630357217 0.2946869620785024 0 0 0
97 1 13.808356390764954 4.636474148963248 9.516330534692168 0 0 0
217 1 6.842656706037599 10.658649887466327 6.3988178408420335 0 0 0
220 1 3.927375132176655 10.822556521800767 3.1830173895481826 0 0 0
304 1 13.116231605633345 10.69457176904139 3.6442832169285317 0 0 0
235 1 -2.254561550749214 8.104230364699243 8.02717099110374 0 0 0
22 1 0.4041262381138895 2.624242455383981 9.42346469170167 0 0 0
56 2 -0.8872735120076335 4.780975693463014 4.0686879716611655 0 0 0
221 2 4.661873560184114 10.538478936584939 2.6440696387083062 0 0 0
2 2 6.993409497040467 0.2842167943128473 5.089982290181487 0 0 0
668 2 12.557541932479749 2.1698530655705595 9.043945623377454 0 0 0
236 2 -2.3718765873338525 8.864798267207425 8.62876897806707 0 0 0
610 1 12.77603361497847 2.726620108344793 0.2995122973540528 0 0 1
237 2 14.873641161401872 7.688691116857085 7.866400430716639 0 0 0
9 2 16.424875339465718 7.382199356957649 4.867556370527018 -1 0 0
68 2 -2.5226376033051308 1.4207088536083115 8.704894302617912 0 0 0
152 2 7.088408269901112 0.5655536432507591 7.976576420268703 0 0 0
309 2 7.6228907858479555 11.050926644934023 3.198061428856896 0 0 0
521 2 2.3773137450379234 5.4082857984716535 8.942507940556222 0 0 0
67 1 -2.2543399319276305 0.5568302074328146 8.326989099118208 0 0 0
55 1 -0.7066150645066183 3.914910399882075 3.5754869351262966 0 0 0
311 2 10.664641152350992 10.863495074014036 5.795438222093488 0 0 0
587 2 -1.877269486396818 6.836580812944895 9.395641358380535 0 0 0
218 2 7.564375003929168 10.879660344436669 6.973907781945534 0 0 0
84 2 3.1421051201230643 6.19957254244532 0.61019679919331 0 0 0
780 2 13.05387812222081 9.398512096866638 0.5460403807527388 0 0 0
90 2 13.849021195680821 0.9609805463586112 5.038570227394244 0 0 0
123 2 15.323414575154048 2.316856079242028 1.8543664518994099 0 0 0
432 2 11.609226943173303 0.011574526311124569 5.354521101878032 0 1 0
528 2 3.0820683943391516 2.966459128087391 0.29409999068079024 0 0 0
145 1 17.257824802558126 7.1438596277293644 1.6788608499448598 0 0 0
305 2 12.365481356076595 11.165055050676504 3.233594063602881 0 0 0
165 2 16.753210511578093 0.887327768114944 0.4882812989173729 0 0 0
146 2 17.528824000501185 6.319133737220633 1.2085326703023016 0 0 0
224 2 -0.23767819202548912 10.869810632725885 3.8528752697484774 0 0 0
291 2 15.460453784300471 9.313488571430675 1.7356218836550423 0 0 0
586 1 -1.1779556390387649 6.197987495398536 9.666421239542073 0 0 0
290 2 16.043149739183125 10.452906543546804 2.6245553637397028 0 0 0
486 2 11.252530760003122 0.25971884739517326 8.88892810778821 0 0 0
526 1 3.9839469686056015 2.688019979951173 0.2975420236088377 0 0 1
16 1 5.792563348119928 4.926745960267585 0.4072521269901033 0 0 0
248 2 7.973488284035616 8.267015140720712 0.6189835235337795 0 0 0
85 1 15.823683404775576 1.1574203820002418 4.735322966110209 0 0 0
483 2 0.12464970083681783 0.25359354806370465 1.9252919590281035 1 1 0
301 1 -2.0101445792265573 10.793079578421379 6.860328678447132 1 0 0
88 1 12.901352956870904 1.1579422537511304 5.042632913179198 0 0 0
101 2 14.775102156568606 5.208512159383683 1.0712737093221325 0 0 0
137 2 12.807012315962266 4.007205696852246 4.239440293529485 0 0 0
150 2 11.422507410105919 7.655122515662872 8.824794643343331 0 0 0
256 1 12.688016760402475 8.361175160461706 5.24693280579026 0 0 0
258 2 12.781974499964438 9.182011388446995 4.7348845893133085 0 0 0
306 2 13.58324532430509 10.367859777392502 2.8729744347125505 0 0 0
125 2 13.86526440181539 3.175727985357204 7.298595748490917 0 0 0
254 2 15.827335025297264 9.276251197487229 5.761930124517822 0 0 0
273 2 11.049404859439635 10.485636542290313 0.23800600104000463 0 0 1
133 1 15.538119489669665 3.2703803560449987 6.496419965717283 0 0 0
122 2 15.807432311786206 3.35229434284011 2.875722377976663 0 0 0
293 2 12.727028280249101 10.718286664905925 7.197496028807509 0 0 0
302 2 15.052382130703538 10.639571651747818 7.217511571644681 0 0 0
86 2 -1.380933614110055 0.5285109295567662 4.660472303498102 1 0 0
110 2 13.586977922148746 5.808994043483171 8.304508065542866 0 0 0
584 2 2.9250688019002773 0.3995211109343113 9.400973249217353 0 0 0
134 2 15.097748980515979 3.86606567692417 5.842627361881867 0 0 0
255 2 15.46117228961766 9.087591424781841 4.243802517100841 0 0 0
253 1 15.500548851768258 8.59947766646762 5.096696678724162 0 0 0
289 1 15.32750550408619 9.780947076833645 2.54762233727207 0 0 0
109 1 13.628276864008457 6.275197847262691 7.4267478699171905 0 0 0
667 1 12.430691817647832 1.509720850261655 9.716339933990408 0 0 0
114 2 15.541935567866368 6.675215642134922 2.1633087352016 0 0 0
113 2 13.962645511405444 6.6890465208124645 2.108824255828355 0 0 0
126 2 12.96439755946574 2.1232735943385466 6.5942722204191115 0 0 0
111 2 12.755049663953374 6.61762861381814 7.305683375769512 0 0 0
87 2 15.68034447079753 1.6886005563371533 3.902209509809828 0 0 0
147 2 16.94542897131111 7.672546886133524 0.8768295311420986 0 0 0
836 2 12.941349502757015 9.054064512721567 8.894047017409681 0 0 0
292 1 13.284915217661512 9.966052598509627 7.407075201703108 0 0 0
294 2 13.197086994472746 9.35425648179007 6.679430729576906 0 0 0
112 1 14.70434762140024 6.161834108607507 2.3498357090902164 0 0 0
124 1 12.97226316622581 2.767191065133116 7.3217742961615775 0 0 0
257 2 13.528581135091757 7.986553518289968 5.460682573041099 0 0 0
159 2 13.956411290440386 5.605896056538385 5.972599466506114 0 0 0
157 1 14.031262435010694 5.0360401832270885 5.157213369191197 0 0 0
158 2 14.462760388437786 5.576849293557601 4.407444358375369 0 0 0
121 1 15.116390875844779 2.6624636658226817 2.7304677859395983 0 0 0
104 2 9.598578967677971 3.5392572223247196 0.3027918500757513 0 0 1
102 2 13.95809851886886 3.905417186484212 0.33307126309294044 0 0 0
23 2 0.8499708746500421 3.451666768169394 9.589774300208383 0 0 0
209 2 3.644324571141803 10.984913280663736 7.18017871870008 0 0 0
108 2 8.21371748472343 2.767813017031174 9.559724138393085 0 0 0
135 2 15.720910424539278 2.4534450153435086 5.948802273329695 0 0 0
520 1 2.2676650957443307 4.703032810506607 9.627421974942818 0 0 0
751 1 3.6895025457366417 8.8997077159736 9.561002020963025 0 0 0
15 2 4.031543844835235 4.693895152999932 9.57450656554916 0 0 0
13 1 4.986285335307906 4.896089105734645 9.578907408001925 0 0 0
190 1 0.7412915269240925 10.18176261367412 9.486893212286628 0 0 0
103 1 10.120571682475754 2.7973744497766937 0.6518467811782016 0 0 0
19 1 1.1599675995908454 2.8346204502742918 0.3906739766960445 0 0 0
523 1 -2.3009734216680235 2.7028614604425134 9.666515725881965 0 0 0
612 2 11.805342340593121 2.97279626188044 0.46777995619786134 0 0 0
17 2 5.132888157893575 4.1927084877311875 0.39190195993040744 0 0 0
247 1 7.176548953665999 8.820222349170646 0.3810396128508601 0 0 0
106 1 9.21458245328656 2.5950924334060934 9.645358316572896 0 0 0
583 1 3.438251829276966 1.2144704333833474 9.587941126036254 0 0 0
524 2 -2.801902151351922 3.54316072522009 9.53343399444377 0 0 0
24 2 -0.5339395599946875 2.802139799589053 9.490429644192448 0 0 0
163 1 16.013527860542116 1.5025503839027432 0.3379568246939415 0 0 0
835 1 12.71571436648863 8.477254562617631 9.638995362453594 0 0 0
777 2 6.10662524657124 10.977231928894755 9.696171779563002 0 0 0
608 2 5.805447198969818 3.2236310460243343 9.745105657389903 0 0 0
672 2 8.548380221616346 6.324918054152991 10.239527020729199 0 0 0
98 2 14.202009197020676 5.179037241488564 10.20862067395768 0 0 0
536 2 -2.854906543524452 0.5126132024105027 11.780578409190506 0 0 0
105 2 2.696354255944599 1.940310282891164 19.085306298120823 0 0 0
574 1 0.30974576538116966 0.3095524528958505 11.20419317291455 0 0 0
657 2 3.7512292582172293 -0.06207933895559664 18.558531123041565 0 1 0
670 1 7.9168264045968675 5.641444333451868 9.844350577419695 0 0 0
99 2 12.835605620682982 4.539807183118415 9.820364696551097 0 0 0
721 1 2.7440622392233314 11.028315266576506 16.064552371107425 0 0 0
571 1 -5.741423195782367 0.5720190281342814 17.959490395807208 0 0 0
168 2 3.8712365435383753 6.452380691946831 18.65736783451642 0 0 0
507 2 3.95626003210519 0.26188964760926614 14.343938448635345 0 0 0
82 1 -4.723981793072236 5.717857057434479 19.266037454046806 0 0 0
20 2 -6.505485527323542 3.2852116273610745 19.21713258927664 0 0 -1
601 1 10.449204524983406 4.740862984242703 19.07301756090822 0 0 0
669 2 12.086000692503587 1.8042437871278143 10.561449849980345 0 0 0
620 2 6.144164323946969 0.3351153444211628 11.733883967449335 0 0 0
656 2 2.428315171923977 -0.08121634487389819 17.557428063615216 0 1 0
505 1 3.3988249830787107 0.9850883390036628 14.1989342875296 0 0 0
506 2 3.5675996828258616 1.6045241090581968 14.91631708211256 0 0 0
778 1 5.777244914641863 10.005477134824007 19.038850747182284 0 0 0
508 1 0.5230292565377028 0.9248654574220214 14.723095051008354 0 0 0
509 2 -0.006464299449948224 0.13907088903910994 14.520836946627508 0 0 0
510 2 1.444435326926389 0.674592776251461 14.48467634774518 0 0 0
511 1 -4.299685003634182 6.087125299674431 14.4579511948425 0 0 0
512 2 -4.437736384663323 5.408282075095908 13.699469562323586 0 0 0
513 2 -4.19085573149722 5.5987414018547 15.390495276525623 0 0 0
514 1 -1.3175132352889833 6.389452155203784 14.15040611400259 0 0 0
515 2 -0.8929748997084904 5.760205865062878 14.700456056072422 0 0 0
516 2 -2.286277578270124 6.349763541305713 14.277773671350635 0 0 0
573 2 11.408309938183011 0.19798287034583445 17.5432827040501 0 0 0
519 2 1.8635082969034125 5.369493282657678 18.09141698193077 0 0 0
828 2 8.5292852977492 7.6520394372517275 11.836991755539136 0 0 0
522 2 2.260252808657969 5.102543904803638 10.507397744640887 0 0 0
603 2 10.402637564295189 5.176573290605925 18.193619241422272 0 0 0
834 2 5.50177053326712 10.54252800245341 14.297614730093427 0 0 0
525 2 -2.643237556757744 2.3581592120201273 10.524674185138537 0 0 0
518 2 0.7392778704088443 4.6746341486560175 18.919498224240428 0 0 -1
527 2 -2.9023813339809497 2.1614356671588304 18.395359730017596 0 0 0
529 1 1.4804359188546243 6.251302156951325 16.60956290595548 0 0 0
530 2 1.44231724144255 5.709381174109555 15.801721773282164 0 0 0
531 2 0.5359263522908055 6.310719938898747 16.939586067819363 0 0 0
532 1 2.138019395278775 6.140972110473789 12.125791311475355 0 0 0
533 2 3.054726459675149 6.500612728545159 12.190016534282888 0 0 0
534 2 2.090452661192928 5.547753402264105 12.94298642172854 0 0 0
535 1 -2.321259678959401 1.2691456174315319 12.069230074056462 0 0 0
164 2 8.279269335431668 0.8893134634156045 18.90110190092147 0 0 0
537 2 -1.445682101303706 0.8943819498447925 11.92545681763307 0 0 0
538 1 -3.1798587104291776 1.2302310804160534 17.01419927124912 0 0 0
724 1 0.3662609458204431 11.025062619401197 13.114706512871713 0 0 0
540 2 -3.3072569942759427 1.5961981010013413 16.114929893190624 0 0 0
541 1 2.7743739975043713 2.6632733446872057 11.868477309735514 0 0 0
542 2 2.9821553078642666 2.056183456744395 12.605138803158452 0 0 0
543 2 2.9068290508172883 2.1508659769738925 11.058437692139112 0 0 0
544 1 0.8139152979643013 2.4853392586677883 16.98424979625879 0 0 0
545 2 0.5797848297992516 2.0508081486448453 17.806635188710192 0 0 0
546 2 0.5438193579337833 1.7606659778617937 16.414337387554568 0 0 0
547 1 -3.875054941063741 4.677084850600758 16.69665692050275 0 0 0
548 2 -4.5039227141599705 3.966497903702267 16.505863701763847 0 0 0
549 2 -4.148608914890283 4.9757804092451865 17.57923571294011 0 0 0
550 1 -1.6788074434275764 4.665866963996347 11.941549149276884 0 0 0
551 2 -0.9372094183850327 4.130469906569987 12.271360189117127 0 0 0
552 2 -1.628951844916005 5.366635952992681 12.64080680335385 0 0 0
553 1 3.2125335255915535 3.089058630814383 15.925454768766782 0 0 0
554 2 2.6510133562875295 2.652150020833467 16.54450520213078 0 0 0
555 2 3.9984345335890374 3.4156941119168973 16.361617579266696 0 0 0
556 1 0.2696532735541097 3.0519316024588967 12.883700144051629 0 0 0
557 2 0.9567079515067419 2.768643284668344 12.35852999636379 0 0 0
558 2 0.1270290384630729 2.21524945056977 13.513745643748084 0 0 0
559 1 -4.279656938507122 3.943885221855085 12.596843406496868 0 0 0
560 2 -3.591725074756381 4.272190726002111 11.975698064476033 0 0 0
561 2 -3.7772799582472816 3.500751179086784 13.342771618087502 0 0 0
562 1 -1.2120160321538083 4.088919122294772 15.852777918209645 0 0 0
563 2 -0.5081657312067589 3.5297196724736204 16.18558974647814 0 0 0
564 2 -1.7667260306583366 4.337384795307065 16.608039861820593 0 0 0
565 1 4.617817527697256 7.062029304947671 11.16305603934167 0 0 0
566 2 4.433003093699836 7.696408689563344 10.383496081132872 0 0 0
567 2 4.77953366936489 6.197344117582212 10.68035916626742 0 0 0
568 1 -0.9988072865404053 6.88399558571919 17.75152873094206 0 0 0
569 2 -1.27698021853621 6.156692046332353 18.40365459326407 0 0 0
570 2 -0.41160945636415636 7.539292123341052 18.305468307246954 0 0 0
815 2 8.080442192140142 10.834539714446187 16.660558833237165 0 0 0
572 2 -5.950770622483836 1.395736140155842 18.441190147730836 0 0 0
827 2 10.00408522781165 7.239718545355305 11.561026786121563 0 0 0
539 2 -4.074912459112286 0.9095165605585565 17.224619934229306 0 0 0
576 2 0.4207992678984095 1.0641839520624174 10.678232606026528 0 0 0
577 1 1.6972030069026278 4.602781045318475 14.520006383854057 0 0 0
578 2 1.0632790852944232 4.080582249688631 13.9781874333176 0 0 0
579 2 2.302643512383138 3.9128877136732623 14.959403724770132 0 0 0
580 1 -2.8374115799602992 2.2968070893935324 14.553666510483733 0 0 0
581 2 -2.6287452812392216 1.7612627944130648 13.792458080141511 0 0 0
582 2 -2.150268073263062 2.9650175713105384 14.855385115458134 0 0 0
191 2 0.5989045123293693 9.385729829413076 10.089824652299674 0 0 0
588 2 -1.5075332246914055 5.58419798383608 10.38180365818079 0 0 0
589 1 12.037897748954112 0.7311812042334288 14.22738981841498 0 0 0
590 2 11.139691850906562 0.5709022052135209 14.475420327482272 0 0 0
591 2 12.237196834802075 1.585717921615315 14.663050963640504 0 0 0
592 1 9.42719599102526 0.9915983121886925 14.58230400635974 0 0 0
826 1 9.186885365989076 7.525952993540664 11.074603579607952 0 0 0
594 2 9.03365084656154 1.6766833016125893 14.066188555299975 0 0 0
595 1 4.930902288132019 6.766261780167455 14.509998365064694 0 0 0
596 2 4.793764623882827 6.342814471010263 15.3759938490855 0 0 0
597 2 4.682472605319627 6.0091165076732205 13.908975958170648 0 0 0
598 1 7.530421874741335 6.2181333451916485 14.317672775645498 0 0 0
599 2 6.6703831073280435 6.475406971615704 14.64913133232949 0 0 0
600 2 7.45231859397234 5.820050349294677 13.438765305829532 0 0 0
693 2 -1.1683214525462526 10.51076853546646 9.84049179276045 0 0 0
749 2 -2.4954426222376784 10.352080725753137 15.003208511906028 0 0 0
810 2 8.655869136694768 10.755725013073766 12.690819714323325 0 0 0
605 2 11.085629024922614 5.1105344087078235 10.720633806364031 0 0 0
832 1 6.174300957492593 9.831573628778555 14.459353928257205 0 0 0
593 2 8.783049864548493 0.22415672163237355 14.647772911156686 0 0 0
825 2 3.2569638384465653 8.796506572799917 18.225015366808908 0 0 0
609 2 6.579655614550787 2.2582388268578724 10.69642577195402 0 0 0
752 2 3.3308778133196433 9.456061976239587 10.292228448815893 0 0 0
611 2 5.771816341187834 2.11934871509931 18.468050349010948 0 0 0
613 1 10.237788192296744 5.960781139680269 16.784164048024873 0 0 0
614 2 10.875752729798359 6.706826775230269 16.873603027632615 0 0 0
615 2 9.313681213132684 6.337782876638163 16.78133322427558 0 0 0
616 1 11.511355555913692 6.473441329391617 11.948374743716034 0 0 0
617 2 11.489821601380866 6.129651152200342 12.81652422143547 0 0 0
618 2 12.47205715141471 6.719268170616554 11.785076276987766 0 0 0
619 1 6.860178766697269 1.028853499435158 12.084245434156609 0 0 0
189 2 -4.763796917379337 10.230411549549876 19.197542169825837 0 0 -1
621 2 7.785541337383924 0.6837498319239169 11.861063317165247 0 0 0
622 1 5.500511617875434 1.0749366684944293 16.93203305270696 0 0 0
623 2 4.52170748847476 0.8516095511230005 16.956142726200643 0 0 0
624 2 5.657767757052313 1.5057551342494875 16.059415624841066 0 0 0
625 1 11.456598780583722 2.5042552977550105 12.068847176945335 0 0 0
626 2 11.469073064228347 1.832780180509628 12.744934543741104 0 0 0
627 2 12.194178954047304 3.1311409701834405 12.312093962508568 0 0 0
628 1 9.736715203979026 2.480833220578755 16.76511814225388 0 0 0
629 2 9.439661699212573 2.093284029024825 17.62020263816978 0 0 0
630 2 9.762421833291175 1.732585430667712 16.087098738783887 0 0 0
631 1 5.14385726984701 4.86048621248975 16.450285060979795 0 0 0
632 2 4.983982580827149 5.216782676874391 17.321709802279237 0 0 0
633 2 6.05384871612502 4.563653321910054 16.445888857901807 0 0 0
634 1 7.161882187642416 4.681655232363744 12.115122747010647 0 0 0
635 2 6.257367544556144 4.453247128923613 12.366408056448329 0 0 0
636 2 7.242919507847244 4.996902976147077 11.210147600171377 0 0 0
637 1 12.168774089595882 3.0872833504429122 15.770229834152925 0 0 0
638 2 11.811245405448899 3.867374420618525 15.33584686628109 0 0 0
639 2 11.534309147817767 2.8835242743639653 16.46882004211565 0 0 0
640 1 9.009721946431078 3.3826712706677613 13.348388304177439 0 0 0
641 2 8.213012402839174 3.7692530543470095 12.900367739803727 0 0 0
642 2 9.659637658990322 3.2170333805811837 12.61656341962401 0 0 0
643 1 4.571995138170222 4.304867561901661 12.956682911315568 0 0 0
644 2 3.910621031082635 3.863887678306504 12.341456735618731 0 0 0
645 2 4.825950275207177 3.612647505491907 13.590076434014609 0 0 0
646 1 7.564340994085232 4.051120572476628 15.699158867440005 0 0 0
647 2 8.314374492290382 3.7131687024887188 16.223249638743738 0 0 0
648 2 7.861049935378066 4.813641441448071 15.11203569084766 0 0 0
649 1 14.00484230888377 6.858946524122425 11.344376398785453 0 0 0
650 2 13.623182751557477 7.3957071695397465 10.624024579903065 0 0 0
651 2 -3.227290517342598 7.3169633821605995 11.749074600736344 0 0 0
652 1 7.760016186128077 6.670143113499329 17.627062662848964 0 0 0
653 2 6.917830786660203 6.992391254919934 17.302768356953365 0 0 0
654 2 7.715857515339223 5.803501535633688 18.086827285547155 0 0 0
332 2 9.204148359873411 8.91592774031171 18.528993966283554 0 0 0
271 1 3.0832919972070845 10.220174241570982 19.272472802363442 0 0 -1
661 1 10.742948367172254 5.171499709079115 14.304857334073798 0 0 0
662 2 10.422600676334605 5.587833174650521 15.12807587761536 0 0 0
663 2 10.05930912225997 4.562149747771024 14.010412580333874 0 0 0
664 1 5.994885084133578 2.3522163216062277 14.434870867834695 0 0 0
665 2 6.698952574976157 2.9417589628809 14.806325206318373 0 0 0
666 2 6.358144960887934 1.923382742349509 13.61629544140224 0 0 0
794 2 12.388030547940248 10.471329579057057 12.385409254575766 0 0 0
986 2 13.465502157728993 0.28467812981394447 10.481232720547606 0 0 0
655 1 3.2002078413499992 0.49391391627640574 17.955529482418225 0 0 0
673 1 3.001044236000185 8.59655764907022 14.3508330525636 0 0 0
674 2 3.919385636740839 8.28316128197948 14.243516145122245 0 0 0
675 2 3.1329623972020855 9.354868179933082 14.978538737019626 0 0 0
676 1 0.15471264946519903 8.651376661116513 14.436206025893476 0 0 0
677 2 1.1338362975754546 8.45910003400755 14.304957988812673 0 0 0
678 2 -0.46560472771637695 7.869372725957281 14.333780858502912 0 0 0
606 2 10.337357085583907 4.112918780325549 9.867822120011429 0 0 0
797 2 10.53898047517881 10.226638492521781 16.979277329140135 0 0 0
188 2 -5.991217468130722 9.358166671669618 18.76696202916053 0 0 0
807 2 12.445375212303723 9.713819369287656 15.793663852872903 0 0 0
695 2 -3.011875901894357 9.6019574622926 18.00393883116354 0 0 0
604 1 11.036544941806879 4.805910121353754 9.762003095785996 0 0 0
703 1 -2.0025397120335207 8.759641390745266 12.254008346639043 0 0 0
704 2 -2.2752317742465973 9.197136223039765 11.377153565004754 0 0 0
705 2 -1.1733142142518966 8.25869909036261 12.128705513876714 0 0 0
706 1 -3.1143328547813782 8.333357969211047 16.97167850541358 0 0 0