LAMMPS data file via write_data, version 8 Apr 2021, timestep = 200000

6144 atoms
2 atom types

0.0790633478012456 59.829371032829684 xlo xhi
0.08809366234694282 28.2523723376526 ylo yhi
0.10349923715349306 27.307945762846963 zlo zhi
10.184759439952868 10.18195524930081 7.136700903150085 xy xz yz

Masses

1 16
2 2

Atoms # atomic

1 1 7.5301569913523805 5.24537170533768 4.015945644208954 0 0 0
2 2 6.75621220681505 4.700829340701718 3.969750250781661 0 0 0
3 2 7.442419499454029 6.186043380838791 4.2374736581871275 0 0 0
4 1 9.973523516521166 6.994854127270637 10.883195908228133 0 0 0
5 2 10.447262142269732 6.698489352696781 11.690282540577728 0 0 0
6 2 9.77070361772739 7.938600144970495 11.046696082954728 0 0 0
7 1 10.050991142587446 12.365632549728307 4.091426700251278 0 0 0
8 2 10.253352251390863 11.861555836285126 4.939387997987736 0 0 0
9 2 9.7860804236772 13.234856088837118 4.449353554468673 0 0 0
10 1 12.59773532592184 13.938393065629315 10.949529852889233 0 0 0
11 2 13.423083971061802 14.180892790384277 10.433255267399794 0 0 0
12 2 11.911961857365064 13.564894571439964 10.287649586375764 0 0 0
13 1 14.622975889952473 5.02749542359763 4.028251975401473 0 0 0
14 2 15.025539885856574 4.370039840909445 4.618790920422768 0 0 0
15 2 14.665554016451075 5.896322153358193 4.564854016153123 0 0 0
16 1 17.56219536510312 6.809505127902593 11.057488962173366 0 0 0
17 2 18.206720444771065 6.545424046081651 11.771366601623233 0 0 0
18 2 18.17383548562421 6.978227975241085 10.353552682331772 0 0 0
19 1 17.43154556067585 12.249469071503219 3.9393602906300003 0 0 0
20 2 18.251295498160736 12.374790949251695 3.449575389099141 0 0 0
21 2 17.791174939105307 11.922223414491432 4.796707572495782 0 0 0
22 1 20.145449772047954 13.838616780809351 10.741121465516596 0 0 0
23 2 21.084875430369266 13.99739921715752 10.296888169932117 0 0 0
24 2 19.741775621933662 14.710584240746192 10.841032987525114 0 0 0
25 1 11.920459948301495 8.04949730839813 6.542317002607047 0 0 0
26 2 11.079415103877762 8.441301157244684 6.150573521590785 0 0 0
27 2 11.357722445626704 7.418436069069722 7.064527281638863 0 0 0
28 1 14.247503873383408 9.83732332069498 12.98110535577613 0 0 0
29 2 14.432244551089546 9.113005010424827 12.329918937632666 0 0 0
30 2 13.576660782464794 10.417093640268808 12.613357701795673 0 0 0
31 1 14.074913492903674 14.978100276914134 6.49298402894873 0 0 0
32 2 14.110315478707365 14.546277885173025 5.5870538514171635 0 0 0
34 1 16.650377992264843 16.85737980335336 12.856721529860852 0 0 0
113 2 15.732343406211774 6.240799275405275 13.527672892651857 0 0 0
37 1 18.824411055146545 8.161438014401767 6.515127364892217 0 0 0
38 2 17.96980412740168 8.353837342017826 6.156871903359433 0 0 0
39 2 18.55248847043872 7.326754382641409 7.071308342584674 0 0 0
40 1 21.759844815943367 9.813860487689526 13.285164708518387 0 0 0
44 2 20.947177557334474 15.648381209828129 6.186980323449722 0 0 0
42 2 21.097629456195587 10.272648824149604 12.685820972845443 0 0 0
43 1 21.664514630722636 15.00091204095779 6.37572320457005 0 0 0
1908 2 16.74124096412148 20.72835404797875 25.384769365677975 0 0 0
46 1 24.061572173238993 16.78376098688263 13.32497067007466 0 0 0
1568 2 19.83970235895161 19.233173336307914 20.25276501040952 0 0 0
45 2 21.808078000414017 14.456564717180129 5.544750671174394 0 0 0
49 1 5.44211720232065 3.8117524799426645 2.893243179695185 0 0 0
50 2 5.541774842265519 2.916724339376999 2.4670948223407194 0 0 0
51 2 4.706220214244721 3.7275468315341813 3.5117567039460074 0 0 0
52 1 7.8793069362641015 5.5409014804329395 9.96163297063949 0 0 0
53 2 7.542716879358477 5.999191663239396 9.130598835056842 0 0 0
54 2 8.565142862804255 6.131434930947307 10.307931023446555 0 0 0
55 1 7.840198889090719 10.577766335255133 2.950422775174701 0 0 0
56 2 8.212582921020202 9.717538813364609 2.7415581245395346 0 0 0
57 2 8.442713365498241 11.044155688686404 3.59970530373 0 0 0
58 1 10.506273940951223 12.729226316960377 9.845320248683128 0 0 0
59 2 10.075173111933319 13.020633414876372 9.022392131105766 0 0 0
60 2 10.78903828091461 11.79882402448899 9.520961786761507 0 0 0
61 1 12.548662526470578 3.601284058273077 2.845291820110392 0 0 0
62 2 13.239702024389489 4.212201214965392 3.1057922003319907 0 0 0
63 2 12.01459239841776 3.94739058196368 1.986131757550033 0 0 0
64 1 15.296219576358203 5.22142789825298 9.861049837764407 0 0 0
65 2 16.079536692372816 5.6815858809200215 10.193125327494203 0 0 0
66 2 15.683924167624845 4.322815196293156 9.691953004885374 0 0 0
67 1 15.339911470278196 10.406802738884398 2.899313465280028 0 0 0
68 2 15.96938594266698 10.952214483802507 3.4015194763858463 0 0 0
69 2 15.645079698074582 9.46722951095587 2.7462464709651226 0 0 0
70 1 17.940616552450646 12.412947515164142 9.816841496088024 0 0 0
71 2 17.519984110793633 12.818726232589569 8.995032928478262 0 0 0
72 2 18.79901711861032 12.871290796057727 9.99354431417051 0 0 0
73 1 1.0353479949679727 1.1792645356546851 0.4812379930429209 0 0 0
76 1 3.7463075456531825 2.7397445096118758 7.449404277951991 0 0 0
79 1 3.877893612390814 7.931648379893881 0.3941661391474134 0 0 0
683 2 25.064480502768028 15.967479985622893 8.161996521240104 0 0 0
81 2 4.722296441192451 7.4958831902863 0.5714873386463117 0 0 0
82 1 6.440234097081914 9.603568034344944 7.276295558132056 0 0 0
84 2 7.237999832974171 9.065601169680413 7.6426091953764885 0 0 0
85 1 8.49052344352599 0.7003278092704934 0.7609248391720189 0 0 0
87 2 8.150853156360466 1.3100423499241651 1.4929747445834174 0 0 0
88 1 11.252864725989902 2.4860537032003176 7.568247673153762 0 0 0
90 2 11.696491748064032 3.187957065514042 7.065006521748834 0 0 0
91 1 11.037276206924954 7.678499812897259 0.6529914701755911 0 0 0
93 2 11.668473720955893 7.134543656826905 1.1552490682901955 0 0 0
94 1 13.854222024571204 9.605756638271565 7.765519950894768 0 0 0
95 2 14.553104369068379 8.920715585111173 8.079945916025013 0 0 0
96 2 13.103322393522355 9.093012072148364 7.488583723130711 0 0 0
97 1 5.2686618544474735 4.479307356203714 6.12616191032318 0 0 0
98 2 5.60998209875688 5.121957702973598 6.810735220350364 0 0 0
99 2 4.606727853359488 3.842770592467253 6.514241117927818 0 0 0
100 1 8.070311991457753 6.063082913769385 13.09410640267862 0 0 0
101 2 7.767604368810397 6.689696736333833 12.360194516070631 0 0 0
102 2 8.650965563093006 5.361069121379565 12.766575677694671 0 0 0
103 1 7.765885147288817 11.564759619680311 5.9724485355770005 0 0 0
104 2 7.30725625989121 12.028551344015126 5.1978160702141 0 0 0
105 2 7.209446605038029 10.85727400127872 6.420397237120512 0 0 0
106 1 10.207936857225311 13.227333733277929 12.702557679025718 0 0 0
107 2 10.753483972694106 13.873072930662637 13.25263836699021 0 0 0
108 2 10.802557522340859 12.73118963237701 12.125678366342525 0 0 0
109 1 12.644492524945031 4.042553875710485 6.202895865726348 0 0 0
110 2 13.436811976109494 3.5081056455387896 6.075244837694709 0 0 0
111 2 12.697460964366062 4.666408647853075 5.4221509214746035 0 0 0
112 1 15.362346065057443 5.698846303606706 12.756100308838143 0 0 0
114 2 14.639413630797211 5.28940248694685 13.226581463261374 0 0 0
115 1 15.191782315649352 11.33096788028341 6.2267425114973705 0 0 0
116 2 14.621471097027504 10.725071719511694 6.768870711708622 0 0 0
117 2 15.32930043331724 12.113505762555107 6.7599747369581555 0 0 0
118 1 17.91840834163101 12.848907652175669 12.718372669083015 0 0 0
119 2 17.302012256089533 12.362555094089183 13.251977639614196 0 0 0
120 2 17.399961446906637 13.463209967272638 12.202710833393697 0 0 0
121 1 2.88543403769102 3.1324286476103644 4.282061431249271 0 0 0
123 2 3.3403332197529507 2.3542372833635565 4.74359544551199 0 0 0
124 1 5.492775168615307 4.939177703235449 11.16316682987788 0 0 0
125 2 6.262266759139358 5.467008593103804 10.805521311919694 0 0 0
126 2 5.913542698461246 4.094083081060175 11.35672434652156 0 0 0
127 1 5.6343321008677965 9.751366603185712 4.061750685103874 0 0 0
2199 2 37.85766733690001 9.854495516768534 16.807832305799266 0 0 0
129 2 6.378467124536038 10.098174366267479 3.5024046179889536 0 0 0
130 1 7.951090335512782 11.979508187858634 11.063817868474452 0 0 0
2909 2 33.69887893155671 19.87391194493172 22.362953937493884 0 0 0
132 2 8.7287435721525 12.371237806828107 10.615913699643288 0 0 0
133 1 10.582697384397983 2.604653509769552 4.201288451168504 0 0 0
134 2 11.093096545190846 1.9444290862411961 4.670886300816377 0 0 0
135 2 11.20432126302387 3.1190434762397627 3.6011310973111867 0 0 0
136 1 12.952557083765527 4.624702693947334 11.057215547562032 0 0 0
137 2 13.880452281098998 4.965827334468962 10.82946568422142 0 0 0
138 2 12.657973729290193 5.2416214095521365 11.813501673173386 0 0 0
139 1 13.095404649570783 9.716746818507062 4.428112807597773 0 0 0
140 2 13.884028958255078 10.128586541964486 4.067219568515569 0 0 0
141 2 13.347879156861609 8.839524391939221 4.699389900646422 0 0 0
142 1 15.73317105982483 11.513566746729188 11.39781922034926 0 0 0
143 2 16.527664823483153 11.852616998471559 10.938139102175413 0 0 0
144 2 15.977021900420107 10.663565883485754 11.785256146295195 0 0 0
145 1 6.869170242234892 1.8435098086321497 5.128969469265051 0 0 0
663 2 32.49728396032464 5.550849956118153 2.453604918230027 0 0 0
147 2 6.629774706768331 2.7327646869728777 5.325456285311156 0 0 0
148 1 9.458905279980092 3.906186908037488 12.005817146992916 0 0 0
149 2 9.843757291676544 4.1010916551089345 11.148650232594948 0 0 0
618 2 29.663720210264724 2.4285507052733637 8.853286784609885 0 0 0
151 1 9.599885553130195 9.07292703406678 5.138961472617404 0 0 0
152 2 9.570819092698189 9.91680046482022 5.689312609100863 0 0 0
153 2 10.21246537094771 9.15594496327528 4.378444830588842 0 0 0
154 1 12.032540818917468 11.218044271654207 11.906282308339721 0 0 0
155 2 11.41491792274307 10.507067867776406 11.946610664894191 0 0 0
156 2 12.2920291236226 11.335841082588692 11.01225163775355 0 0 0
157 1 14.507076594521669 2.060188603697514 5.151813349072602 0 0 0
542 2 29.81996989876499 1.9727921515656108 5.363373008006317 0 0 0
159 2 14.87619689011114 2.090300961132958 4.238140460111778 0 0 0
160 1 16.802530878037484 3.687245028947 11.795125722184881 0 0 0
161 2 16.440260094086696 4.4217355518897605 12.337315791201283 0 0 0
1877 2 12.031941631556334 12.350881534508838 25.34707189079702 0 0 0
163 1 16.607773299530947 8.961155523071712 5.286745421181784 0 0 0
164 2 16.457308922677154 9.857500156231078 5.56875507151254 0 0 0
165 2 17.128491014254777 8.968222410994308 4.455063149767468 0 0 0
166 1 19.666297698869066 10.89321401488641 11.848821890957876 0 0 0
167 2 19.16545613474227 11.759305071301146 12.172492030108858 0 0 0
168 2 19.899715879632513 11.04467322396251 10.898927960304423 0 0 0
169 1 9.364380197082218 4.4281044612485925 5.98915307808316 0 0 0
170 2 9.939158257220797 3.9483118479981183 5.3801074439694885 0 0 0
171 2 8.441321491547429 4.64902372794754 5.46822534049402 0 0 0
172 1 11.673241114082293 6.11292049815 13.003230682853548 0 0 0
173 2 11.909316837549136 7.020766823432737 13.301197104455172 0 0 0
206 2 16.752906436735692 2.6767734645387677 2.9721797745693364 0 0 0
175 1 11.536558741400837 11.138148399268808 6.348677650068934 0 0 0
176 2 12.13675277599687 10.686202047689825 5.726354697502395 0 0 0
177 2 12.156007880308643 11.779609312695472 6.760291786798846 0 0 0
178 1 14.04019802869933 13.069098503765609 13.102816699169738 0 0 0
179 2 13.32422659155319 13.242161248995345 12.447955258748856 0 0 0
180 2 14.71870075133396 12.555935601103995 12.602800876555076 0 0 0
181 1 16.58736194521466 4.0740346079313525 6.002309732827649 0 0 0
182 2 17.345922164406392 3.684223061877618 5.5002035075546125 0 0 0
183 2 16.938154514306337 4.839501492069665 6.522249969417887 0 0 0
184 1 19.314282189499274 5.993953798539168 13.09286183962781 0 0 0
187 1 18.565867714273665 11.503551263476433 6.150636797672536 0 0 0
188 2 18.244365904611676 10.900262459026129 6.838544444191245 0 0 0
189 2 19.026777626616926 12.253363019912056 6.634627042294683 0 0 0
190 1 21.458813597571687 13.339854950639225 13.109514500587535 0 0 0
192 2 20.746291326458618 13.463748435125597 12.43894756634802 0 0 0
193 1 8.3163548507835 2.4598330559981836 2.8957930989602954 0 0 0
194 2 7.733532269670534 2.161087305242035 3.657549235833115 0 0 0
195 2 9.219888530325607 2.3479741740585354 3.247068026848956 0 0 0
196 1 10.809940966184026 4.0903182267167395 9.679472080968813 0 0 0
197 2 10.830984113503964 3.530002839952713 8.871991565739673 0 0 0
198 2 11.721516355308276 4.187083045335468 10.006072641273535 0 0 0
199 1 11.123863690850728 9.749072893262486 2.550020113433089 0 0 0
200 2 10.92627100267789 8.96678763286675 2.052188473141914 0 0 0
201 2 12.042730988421964 9.606355595239613 2.9598612944920375 0 0 0
202 1 13.650059730980479 11.398785563865575 9.889645723650345 0 0 0
203 2 14.562172513485244 11.48993785748915 10.39642117941494 0 0 0
204 2 13.744600802444673 10.671393046568786 9.290295802892976 0 0 0
205 1 15.824805595948071 2.5225014730847737 2.695501408317194 0 0 0
207 2 15.87819162737633 1.7282418004464761 2.124446983904654 0 0 0
208 1 18.545264310349754 3.8781019011062257 9.66825703440868 0 0 0
209 2 17.886514012005485 3.9635615249045086 10.394156549463055 0 0 0
211 1 18.250604973248166 9.456957076615428 2.9288915457156994 0 0 0
212 2 18.09723366074068 8.689372457321 2.3385924079193847 0 0 0
213 2 18.093370916730596 10.260665104571627 2.3526929025570475 0 0 0
214 1 20.855134044705277 11.410172361180862 9.4343708841639 0 0 0
215 2 21.743123266114246 11.471034689723357 9.929889820548013 0 0 0
216 2 20.882602492210626 10.53216265484523 9.02251784119883 0 0 0
217 1 5.586285624370663 0.9730415592332369 2.1409335389838655 0 0 0
1754 2 11.114590475287423 4.22717770323651 15.784520696182762 0 0 0
219 2 5.67594415460705 1.2366322157346132 1.2259696528702566 0 0 0
220 1 8.315007466769512 3.296383965795458 8.510732835804514 0 0 0
221 2 8.35868895280295 4.103422083908386 9.072320487942228 0 0 0
222 2 8.651712208480905 3.6418171180001315 7.642046457553856 0 0 0
223 1 8.351303381426986 8.204700273239034 2.0590261593853882 0 0 0
224 2 9.02636947661962 7.50678798678913 2.3019172361164206 0 0 0
225 2 8.498670572511102 8.544928530866349 1.1625662751585066 0 0 0
226 1 10.788146462059373 10.336761397893294 8.884222810159649 0 0 0
227 2 11.314082280131593 9.531612668345282 9.100909290305614 0 0 0
228 2 11.137732643752924 10.723724119679616 8.054043902825514 0 0 0
229 1 13.172615511709198 1.3732100821128825 1.6034964589343663 0 0 0
1905 2 14.104287978581036 18.654405515273126 18.404936127511345 0 0 0
231 2 13.105285111061024 2.1864542911929203 2.1574988172237806 0 0 0
232 1 15.632577678209515 2.8259793339096393 8.288829397264116 0 0 0
131 2 7.335093442446022 11.83377110530301 10.327644389824858 0 0 0
234 2 15.802605922634973 3.184330836401076 7.425917549714821 0 0 0
235 1 15.550230154537507 8.00397579554516 1.8200307819277475 0 0 0
236 2 15.961260352430326 8.305927559533151 1.035937724788262 0 0 0
237 2 16.096412292342283 7.284787462275704 2.198008327251002 0 0 0
238 1 18.36730387047961 9.917226370524103 8.88447616461765 0 0 0
239 2 19.035524798080118 9.37781668225498 9.306362363270281 0 0 0
240 2 18.55490573455546 10.85255353004737 9.19953727818303 0 0 0
241 1 7.592616630838285 4.537971178068412 1.0353917623535036 0 0 0
242 2 7.91729006376313 3.918210019581918 1.7368737967576267 0 0 0
243 2 7.017937239607615 5.187717338286836 1.449793028693283 0 0 0
244 1 10.28653760695574 6.275175840494157 7.960091172641945 0 0 0
245 2 10.228033465704437 5.589405060850188 8.658586575658223 0 0 0
246 2 9.888898723226982 5.792978383357781 7.214830855839383 0 0 0
247 1 9.941900912215678 11.473064799330805 0.9043844215989081 0 0 0
248 2 9.178569640947977 12.068390713971361 1.2688276683679645 0 0 0
249 2 10.227863100636288 10.930886932846084 1.6601617224440084 0 0 0
250 1 12.756588174144369 13.078290284999175 7.814684245638179 0 0 0
251 2 13.32006700829428 12.70547094423903 8.487607268052656 0 0 0
252 2 13.366810880242499 13.733983945385832 7.409515412190347 0 0 0
253 1 14.965339757776688 4.460271981754252 0.9212029226980116 0 0 0
254 2 15.190704531178456 3.907366954502875 1.6687768556912006 0 0 0
255 2 14.386285617034623 5.177715527065766 1.2575138598365128 0 0 0
256 1 17.256665313004525 6.081544212333817 7.785162515360469 0 0 0
257 2 17.55053268381205 5.548315840616873 8.492686531419263 0 0 0
258 2 16.827192596850715 6.839166408219828 8.180573485678018 0 0 0
259 1 17.535570339058484 11.347798643497425 1.037757271039353 0 0 0
260 2 16.902548784802935 12.050534873558032 1.3855776212286968 0 0 0
516 2 23.03579733593535 11.98756002537401 11.839867246888872 0 0 0
262 1 19.896007051145435 13.356391134732625 7.478374442287091 0 0 0
263 2 20.399886880897682 12.653476207690241 8.079496936493113 0 0 0
264 2 20.719611336727294 13.792815381702795 7.046869411664109 0 0 0
265 1 9.819016683788588 5.980008814924682 2.661517831066874 0 0 0
266 2 9.06771095912575 5.487172498954838 2.9892322538329275 0 0 0
267 2 10.182637903898021 5.484026319924528 1.9070510341261637 0 0 0
268 1 12.292829417085985 7.79765525413732 9.393105210756037 0 0 0
269 2 12.85723080875489 7.335579440301883 8.748186643516155 0 0 0
270 2 11.649418786145782 7.177212960962237 9.74032282281859 0 0 0
271 1 12.150364430987752 13.313108724863923 2.551334074929167 0 0 0
272 2 12.962937443652548 13.510892572769187 3.0753839009387662 0 0 0
273 2 11.479322607681326 12.852531140344599 3.0978904396700977 0 0 0
274 1 14.726465540301103 14.720614013348703 9.474129196204617 0 0 0
275 2 14.270889113799955 15.505960995268426 9.167197763033311 0 0 0
276 2 15.48592890770024 14.923318737002948 9.997958246022918 0 0 0
277 1 16.9429744699949 5.939604956522999 2.8872629638157377 0 0 0
278 2 16.21488954449823 5.314666778322545 3.134573664769812 0 0 0
280 1 19.771718785027073 7.921327733736215 9.891793592708256 0 0 0
282 2 20.38797646566666 8.107012386029727 10.625117168252151 0 0 0
283 1 19.6912970857425 13.274781628644615 2.5460591598458238 0 0 0
285 2 20.26659198097212 13.107647780685229 3.333206510451002 0 0 0
286 1 22.576443388487167 14.632519325765163 9.320630187428977 0 0 0
287 2 23.057046061893413 14.978050558944217 10.07474820347764 0 0 0
288 2 22.112318356072663 15.37157017736025 8.866533087588508 0 0 0
289 1 5.9265369984553 6.907906902020901 1.7544353747623374 0 0 0
290 2 5.512297981124117 6.766884144631421 2.590810631759905 0 0 0
291 2 6.650395951264085 7.568378589309379 1.9328671173117429 0 0 0
292 1 8.609348894554309 8.683991484848274 8.711943009253442 0 0 0
293 2 9.265903434861753 8.019263530811521 8.348894800218888 0 0 0
294 2 9.217677413039167 9.397783439166101 8.913611646957294 0 0 0
295 1 8.372985129557014 13.78615991336471 1.7944107688588324 0 0 0
296 2 7.94357441370763 13.60355524569017 2.701744638191159 0 0 0
531 2 21.337648934912217 1.418713403478221 5.093224139953074 0 0 0
298 1 10.842362857941435 15.515846901745613 8.578059267206761 0 0 0
299 2 11.067482012756873 14.817229155169363 7.9524100134307165 0 0 0
297 2 7.626003768092287 14.029629915651167 1.1904030685942595 0 0 0
301 1 13.329701941807025 6.512081190842334 1.8081973705466563 0 0 0
302 2 12.99449595380572 6.468474419053759 2.7213613443923967 0 0 0
303 2 13.980833887830105 7.181742446619527 1.780739157406244 0 0 0
304 1 16.07169357854016 8.357962895390179 8.81862022583971 0 0 0
305 2 15.688250998851963 8.17862701553661 9.689744470401525 0 0 0
306 2 16.683341867710173 9.104480104729701 8.870326645563694 0 0 0
307 1 15.762168597505708 13.656029446456756 2.0291022864378485 0 0 0
383 2 20.534939292929362 17.058646136167592 11.941645995330578 0 0 0
1968 2 44.36880667639702 20.12811891135272 26.037456364557844 0 0 0
310 1 18.389504895845736 15.566201195573164 8.629700561198932 0 0 0
311 2 18.719311552768186 14.73495115266919 8.292648632069547 0 0 0
344 2 6.600314032987784 13.973374508155514 4.517408746473151 0 0 0
313 1 3.6894966997552436 4.625331825608804 0.8815048152195696 0 0 0
314 2 3.457720982941072 3.8589734565818112 0.4137396398972388 0 0 0
315 2 4.349616628869083 4.434425987886691 1.5851205660755343 0 0 0
316 1 6.349664957004782 6.46147353267402 7.789551521635174 0 0 0
317 2 6.750496019031473 6.913949318955767 7.037334486221579 0 0 0
318 2 5.6675644319644505 6.996024061593824 8.21336729490427 0 0 0
319 1 6.408803160632365 11.842460139164169 0.7047650369890122 0 0 0
320 2 5.937797094117963 11.105762490771081 0.2617659393790669 0 0 0
321 2 6.953038314466265 11.47951089584914 1.393009492171081 0 0 0
322 1 8.969482878646543 13.416253703519077 7.482166041736776 0 0 0
323 2 8.235073446694544 13.943148980996336 7.897748886407174 0 0 0
324 2 8.507843990404776 12.620954927045496 6.992596038687204 0 0 0
325 1 11.270700181400484 4.536599660746347 0.809995079226936 0 0 0
4739 2 42.720215092797226 16.028851062496816 25.37574573088126 0 0 0
328 1 13.958364293058684 6.134132944736054 7.708108573924143 0 0 0
329 2 13.803878693180982 5.260821518875531 7.255965180533228 0 0 0
330 2 14.706671570280077 5.984701675565246 8.329542252687197 0 0 0
331 1 13.505371943921903 11.366710808192675 0.8102403607874369 0 0 0
332 2 12.864114022638104 11.95647351219632 1.3361753777202179 0 0 0
333 2 14.11743087411779 11.06758861178179 1.4963338743550751 0 0 0
334 1 16.381650123387082 13.470361869872354 7.7566912931217225 0 0 0
335 2 16.542142270022868 13.873754777104265 6.921972140306127 0 0 0
336 2 15.6983656589197 14.015849850791861 8.252826470106676 0 0 0
337 1 4.566767711802792 6.607454078802107 4.131135448157176 0 0 0
338 2 4.7738225077969245 5.8116082766160915 4.630029921441961 0 0 0
279 2 17.252868441067132 5.4586890189596495 2.1365598017402916 0 0 0
340 1 7.146717987196798 8.082560140388418 11.269144275775862 0 0 0
4950 2 40.80226940480266 11.83667005874676 24.305027028127927 0 0 0
342 2 7.635240282885014 8.49638352648967 10.49855727413271 0 0 0
343 1 6.815033250188613 13.199416492204643 4.008167942385499 0 0 0
341 2 6.866106252319755 8.862917079228058 11.82129251064508 0 0 0
185 2 19.401090253055752 6.9173844283251125 13.51870646100968 0 0 0
346 1 9.354098421757582 15.265253153622274 11.215968829983728 0 0 0
347 2 10.032502302051027 15.366033826938342 10.501703967220475 0 0 0
348 2 9.593554419882564 14.434899970095296 11.69473150432831 0 0 0
349 1 11.973844430295255 6.213552290513041 4.184003095592711 0 0 0
350 2 11.85269600171272 6.882805677594515 4.890338923515819 0 0 0
351 2 11.099857311572235 6.103408674084324 3.796408205144294 0 0 0
352 1 14.653594594056484 8.10054724363327 11.141415635703456 0 0 0
353 2 14.9574846285104 7.252687151780666 11.55009914945735 0 0 0
354 2 13.790763834983018 7.92113610174661 10.697017500905341 0 0 0
355 1 14.355094214358752 13.214400156935904 4.362567914607743 0 0 0
356 2 14.579523031206433 12.435368780711869 4.842888255179223 0 0 0
357 2 15.080231199779641 13.233048139264472 3.7698907024303083 0 0 0
358 1 16.955215193406918 14.949988471492908 11.084233316436467 0 0 0
359 2 17.029526686219317 15.741174896420258 11.702531718711892 0 0 0
360 2 17.46912045482621 15.23479363568616 10.295750843809499 0 0 0
361 1 7.1722393462697065 7.656417231118942 4.891166197689973 0 0 0
362 2 6.4394615722770245 8.213216833996729 4.54657874424322 0 0 0
363 2 8.011892008558204 8.225091344173746 4.9601915243676 0 0 0
364 1 9.73901880664199 9.698939976119172 11.950431813318541 0 0 0
365 2 9.221555310896145 10.508809378485548 11.769131257127057 0 0 0
366 2 9.546704207589663 9.441646334774346 12.87064544034127 0 0 0
367 1 9.882714440416162 14.926666774784206 5.110737452904662 0 0 0
2228 2 36.86682762386819 17.904995786182102 15.57563815142452 0 0 0
369 2 9.627568489869134 14.602408120174506 5.986992387738251 0 0 0
1966 1 44.06738468315623 20.571758776303096 26.91352370425234 0 0 0
423 2 34.42389796071574 8.577809015136554 7.033657721364512 0 0 0
372 2 12.221629561303656 15.650351501100015 11.599634539460602 0 0 0
373 1 14.631130130341406 7.231189925936041 5.313348444632759 0 0 0
374 2 15.486296996429795 7.784159406717846 5.205254399441781 0 0 0
375 2 14.523320313811103 7.0492450389157195 6.244657806516543 0 0 0
376 1 17.185766401958393 9.170635533577181 12.039851425807669 0 0 0
377 2 17.93070461036848 9.819562555982433 12.067438418664498 0 0 0
378 2 17.382539392537566 8.508134108706408 11.405361611630038 0 0 0
379 1 17.345311736802255 14.595877589379002 5.457760951686362 0 0 0
381 2 17.308309611359515 14.016995874661017 4.684315644904573 0 0 0
382 1 19.737903932185084 16.528177956100897 11.65911374655306 0 0 0
3504 2 9.582692318183758 16.2339261093264 12.729146535815788 1 0 0
384 2 19.346873650603534 16.286552738962673 12.532705217294152 0 0 0
705 2 20.888644139562814 10.714224228631007 0.40419242321502286 0 0 0
3152 2 32.695918946360536 7.60404958404958 0.19128442310950616 0 0 0
210 2 19.43310937288484 4.1062261146345875 9.978265535156044 0 0 0
284 2 20.147197880162082 12.803665464827672 1.811140701317629 0 0 0
1611 2 6.8422732004252005 4.757645405947933 13.79934066537585 0 0 0
1722 2 24.05038943310241 9.09134077331758 27.127329342375784 0 0 0
74 2 11.74650746561599 8.937007039403435 27.19338658147373 0 0 -1
2205 2 40.32732603414392 16.897655102460842 17.156817235309806 0 0 0
468 2 20.401146663499926 8.982085631934417 7.306968619186277 0 0 0
512 2 20.05424997114007 10.363179212178604 5.241835328045416 0 0 0
597 2 33.2215336528762 9.103101577939933 2.1777860348950004 0 0 0
174 2 11.345478676081607 5.804461882688809 13.885377795096726 0 0 0
261 2 16.92986545873712 10.724582179072547 0.5433857358135127 0 0 0
186 2 18.852067228737713 5.52280118907934 13.774220213815665 0 0 0
92 2 10.427310293491661 7.075740550489076 0.17280914644036252 0 0 0
722 2 18.493215430581976 6.28680297398407 3.8971068283138286 0 0 0
1617 2 9.175976019966122 12.267684251100775 13.578784344715883 0 0 0
86 2 8.964058661042598 1.270471055523388 0.16403392799194108 0 0 0
1857 2 11.882290241177568 15.714390043096175 13.581301637949078 0 0 0
1537 1 12.479254168729442 8.955893265419608 17.69911276914979 0 0 0
1538 2 12.871876016560817 8.454367360132416 18.478253226705363 0 0 0
1539 2 11.725375317890299 8.402070289546755 17.338238878030296 0 0 0
1540 1 15.493049194263337 10.653178621417261 24.425719316559604 0 0 0
1541 2 15.106053961729783 11.569697624812582 24.69173127061495 0 0 0
1542 2 14.696463942232873 10.237571844921296 23.997673819933876 0 0 0
1543 1 14.919929461273577 15.586179487255329 17.6321277123188 0 0 0
1544 2 15.189855258487242 15.244411776398639 18.473147812697864 0 0 0
1545 2 14.93271439653545 16.557819523931503 17.734229198119046 0 0 0
1546 1 17.618091718918052 17.576149320991465 24.381547601969107 0 0 0
1547 2 17.552598966576912 18.53840522538305 24.635826763104 0 0 0
1548 2 18.021399739728185 17.157021080317357 25.191225632863283 0 0 0
1549 1 19.981992871372725 8.708867318666627 17.520569620663206 0 0 0
1550 2 20.6652623707474 8.720504236976865 16.822034469914012 0 0 0
1551 2 19.70217571201464 9.63233311100282 17.7293878046537 0 0 0
1552 1 22.617834078959202 10.467424544617423 24.439881653368946 0 0 0
1553 2 21.82780881695106 10.075580736105746 23.948541985695442 0 0 0
1554 2 22.828329024147504 10.020382308278755 25.289013791622484 0 0 0
1555 1 22.44276305304509 15.69052072100691 17.575275318128238 0 0 0
1556 2 22.196000409670845 16.540793521878967 17.98179849110945 0 0 0
1557 2 23.322814660163647 15.855156979258165 17.240658368516502 0 0 0
1558 1 25.263464013536268 17.5881560040307 24.500434680868572 0 0 0
1559 2 26.01508965075528 17.766116671028865 23.879239009843335 0 0 0
1560 2 25.110304100699516 18.384151594028133 24.99289947497449 0 0 0
1561 1 16.75894114607727 11.766897394886014 19.883966690747375 0 0 0
1562 2 16.719550105803744 11.150923938367109 19.119589276035832 0 0 0
1563 2 15.904948658011499 12.281398377058347 19.731890378875764 0 0 0
1564 1 18.957528306358203 13.341914405994322 26.593996216934816 0 0 0
1565 2 19.246790531465464 12.826378077323602 25.783142085831365 0 0 0
33 2 13.277664948764434 15.526408436553659 6.388305641895237 0 0 0
1567 1 19.10353500238802 18.63070552032731 20.00324599513287 0 0 0
1570 1 21.675654014807616 20.631890267137635 26.66821303945532 0 0 0
1573 1 24.423889562014423 11.657022138729817 20.103550383665958 0 0 0
1574 2 23.699194017406867 11.997069851188916 19.592329843881632 0 0 0
1575 2 23.959660843775513 11.150018082213537 20.81232045101681 0 0 0
1576 1 26.571390841034976 13.519471152172827 26.59226264799061 0 0 0
1578 2 25.726453137709566 13.994086339262585 26.293627798358806 0 0 0
1579 1 26.612605813608663 18.61709794997114 19.689538016261313 0 0 0
1582 1 29.330291898476087 20.227854702382896 26.830731370087502 0 0 0
1814 2 22.863120135762433 8.926695959570061 15.651741341957862 0 0 0
1585 1 10.178276925245287 7.657992132063271 16.605616197554887 0 0 0
1586 2 10.468102521230305 6.873712701220473 16.213142716630184 0 0 0
1587 2 9.785653486122273 8.183697758135219 15.832467197074092 0 0 0
1588 1 13.222025380734195 9.107943119881144 23.066451090106963 0 0 0
1589 2 12.521598639038347 9.452147407273298 22.469117042339267 0 0 0
1590 2 13.202324098794538 8.177578512961137 22.84276649891473 0 0 0
1591 1 12.683869972363082 14.032818160519795 16.544713054094 0 0 0
1592 2 11.837065185280208 13.909984626299563 17.042321976604487 0 0 0
1593 2 13.22418524135545 14.73800900938272 16.91111473482029 0 0 0
1594 1 15.458813935687319 16.15073002710649 23.18677412304453 0 0 0
1595 2 14.612140824085303 16.268839348569514 23.687365438088833 0 0 0
1596 2 16.109903964751954 16.721521651625395 23.614048421902428 0 0 0
1597 1 17.666255800256373 7.180144050773947 16.441521908515043 0 0 0
1598 2 18.283894767037676 7.661294405533194 17.01176477125123 0 0 0
1599 2 17.455342157239947 7.771829248999602 15.713357325261518 0 0 0
1600 1 20.459630321053677 8.873106822615686 23.475787133408996 0 0 0
1601 2 20.539638311404406 8.038705326714169 22.98697728046073 0 0 0
1602 2 19.735648782929612 8.729061874309355 24.112456419030146 0 0 0
1603 1 20.111454398581788 14.279601601311215 16.32367871860674 0 0 0
1604 2 20.787929445934317 14.787018436995146 16.760465352283255 0 0 0