LAMMPS data file via write_data, version 8 Apr 2021, timestep = 0

6144 atoms
2 atom types

-2.7617468014398137 62.730035932621654 xlo xhi
0 28.15524825253315 ylo yhi
0 27.215471587125297 zlo zhi
10.160373117076205 10.18426367496081 7.123607859287567 xy xz yz

Masses

1 16
2 2

Atoms # atomic

1595 2 17.253138730186084 18.400911319607477 19.895617571556695 0 0 0
1604 2 6.4317826397556574 12.399443819497707 5.714479608924883 0 0 1
2336 2 20.500083796438478 21.045588332697477 16.651319696109553 0 0 0
987 2 10.929555852351076 15.781893906693552 17.914934615284974 0 0 0
225 2 14.83404103133477 28.73543096533505 4.579556767376892 0 -1 0
3502 1 9.177581173401993 16.511999576314278 15.295013045758264 1 0 0
1131 2 15.914616294614412 15.992785952319952 18.557020416434327 0 0 -1
1625 2 13.301118384708431 18.157930961445086 11.65179697105924 0 0 0
2464 1 10.746163800145307 22.343528129354112 5.773534668351294 0 1 0
886 1 16.82781983858158 23.384243360370686 19.9938386914025 0 1 -1
1633 1 17.26061504326545 14.949839294521682 19.320708870350714 0 0 0
849 2 11.179370570888508 18.83661434456388 6.77035864823249 0 0 -1
2443 1 8.600829019242987 15.908319889026803 9.633978187110442 0 1 0
316 1 15.583363725724833 31.787737539614184 20.6742647787668 0 -1 -1
2466 2 10.191086527365819 23.038723327270723 6.151244557868286 0 1 0
1895 2 8.9775231401217 17.930310348370284 3.6782079229406137 0 0 1
1670 2 15.129602596730901 11.565205273971555 21.79239085844925 0 0 -1
1634 2 16.803444063582734 14.549179059709298 20.16298087948976 0 0 0
1064 2 22.308956799226653 33.014294389911186 22.459230310621 0 0 -1
1894 1 9.387948985097896 18.443694870865894 4.411834497774268 0 0 1
5971 1 10.188225641464648 19.960118641095857 15.61528356756315 1 0 0
1916 2 14.973352303872986 26.412023307188335 6.848810074658355 0 0 0
611 2 18.82093133664235 29.56212752531676 12.083960948559795 0 0 0
1709 2 21.10260502733684 27.11685228841092 15.321323983392237 0 -1 0
70 1 9.116920477907517 21.2568806552675 9.354977038407743 0 0 0
227 2 12.391261815640956 27.919974616879447 8.332807205371113 0 0 0
5967 2 10.566271200506417 16.179862414497162 14.326715927924683 1 0 0
5053 1 13.14082902136175 29.805134470663262 15.905039245824186 1 -1 0
481 1 15.591456585526359 22.202479208998508 22.99927463095242 0 0 -1
2564 2 8.340037679764386 4.958499546561472 6.253641549123492 0 1 0
416 2 12.741110365684026 15.912437168382754 14.767811686028715 0 0 0
1871 2 12.047632343193865 17.96225497655922 13.152873213945975 0 0 0
610 1 18.88668758709175 30.081288919313725 11.321683069136553 0 0 0
1275 2 2.666245574745064 5.576287685076199 3.062542515222964 0 0 0
2401 1 20.294252227629222 29.979321071884282 20.223948195650273 0 0 0
464 2 25.876270509659257 30.391594583797826 8.97472880480307 0 0 -1
1708 1 20.95971090982223 26.94276128700133 16.2691662035796 0 -1 0
5269 1 7.299727751152683 12.051888357731555 15.93357530985374 1 0 0
907 1 17.756305256887767 27.76223023413952 18.944523050820933 0 0 -1
99 2 7.254653391518111 6.428881173814794 8.478162369525686 0 0 0
1561 1 12.758558500121858 20.662416161191857 9.968070100595515 0 0 0
1901 2 14.22995667380918 8.063330527041021 24.731680216367486 0 0 0
174 2 19.21373568853224 12.112202538977748 15.249799040451807 0 0 -1
1686 2 3.5544633178532354 15.343924576280216 0.036467169834102975 0 -1 1
924 2 18.482789814572396 13.961237225042233 11.722394892664626 0 0 0
1706 2 10.724283309307886 12.811007360162781 15.534658888545156 0 0 -1
224 2 15.031242537690233 27.87698012847965 3.294784203285132 0 -1 0
358 1 4.876869761960394 18.290254419662247 0.4157120687447368 0 0 1
1710 2 21.24696444855133 26.007847181684895 16.318718814835876 0 -1 0
1689 2 18.87086891946325 30.059172830975815 14.626336356742573 0 -1 0
1705 1 10.12618145745386 12.88042151754008 16.301986782787218 0 0 -1
1773 2 16.29762853179352 25.56415883867249 0.2791754388321944 0 0 0
1636 1 9.544891625929296 12.037300111399734 20.849361061421565 0 0 0
112 1 16.873758531020297 26.312634645838855 25.891923436921413 0 -1 0
2521 1 14.618687902583584 28.502943616731937 14.193339820893309 0 0 0
2446 1 0.053040487418788196 1.9642025633119433 6.222692989892012 0 1 0
2678 2 11.369676637093342 17.856520200011758 19.136644539226833 0 1 0
1635 2 17.950364851461117 15.588212724169727 19.668283209955234 0 0 0
1017 2 20.667378621082047 27.388403466273576 5.836421977946729 0 0 -1
2474 2 6.8317543686710716 21.860436613688066 3.9176284295423054 0 -1 1
821 2 14.928867650424241 28.243618104690547 22.308825711940923 0 0 -1
756 2 12.482506912193454 21.44134065761302 14.80381439665531 0 0 0
896 2 20.977354134731335 33.30560127065976 20.568898524748708 0 0 -1
5177 2 16.796035516661874 32.35318838375795 21.787589852639297 1 -1 0
2323 1 20.674443297139113 27.642608178355626 19.11093873981442 0 1 0
2450 2 16.842827798653598 31.23265165798981 17.094467479384516 0 0 0
489 2 22.163587865441784 27.837651685904223 26.075281579436 0 0 -1
894 2 11.187114661970693 23.961132084821273 8.952393065079347 0 0 0
370 1 8.454000852926864 10.069237887518321 25.510130622504796 0 0 0
1274 2 3.7788471179742427 4.9544395064914895 2.067917902317805 0 0 0
1113 2 14.362466401912773 25.52819550160217 16.699706743952337 0 0 0
1669 1 16.024057110486797 11.651894666286536 21.42560227455217 0 0 -1
1063 1 21.334381639883325 32.95000039366869 22.39436722465535 0 0 -1
1671 2 16.298422714478846 12.622653650005658 21.575729549288877 0 0 -1
293 2 6.297731766504321 15.099359052976734 5.81232481951172 0 0 0
1001 2 7.8022674699045345 18.445696875405737 7.578185280725353 0 0 0
846 2 18.259540681134354 25.31285547165166 26.800092230335107 0 0 -1
1062 2 17.10316910593566 33.730913775902984 27.13834991741854 0 0 -1
6038 2 8.81879110050792 15.34979383242329 18.316211019371195 1 0 0
822 2 15.783054184318836 27.260132373051906 21.63481468808121 0 0 -1
2471 2 13.142625079217115 13.53782424303027 17.40011552550236 0 1 0
1112 2 12.9173640382119 25.614038296110685 17.435870675722263 0 0 0
887 2 17.298341245994017 23.156829834224197 20.78840992826897 0 1 -1
2465 2 11.292197004691147 21.99122844308728 6.533302824974063 0 1 0
2570 2 19.643667160260332 27.56632668695379 8.658826686372128 0 0 0
2282 2 10.129575514720571 26.99430573599485 6.070504435656733 0 -1 0
223 1 14.318855144741764 28.15050293564045 3.960515040033352 0 -1 0
1917 2 15.897756069416939 25.460475803448823 7.432679213176047 0 0 0
353 2 6.7471952841378835 12.092624185932328 9.406075046675586 0 0 0
2407 1 12.676849512508845 22.254559495374806 7.8164139376514505 0 0 0
1687 1 19.63466320589722 30.69283707598663 14.650345012691316 0 -1 0
986 2 10.37241305503981 14.426371429697834 17.275232752536546 0 0 0
1707 2 10.514534335121173 12.157416580928553 16.797252576272246 0 0 -1
1703 2 15.90505247663993 17.459997173347354 16.711115809130558 0 0 0
1374 2 28.25060061788886 30.214834121295443 19.623846282914315 0 0 -1
1688 2 20.136161411625874 30.57272284088417 15.429864167251054 0 -1 0
101 2 7.841921650552723 8.555634700538665 11.053447355657756 0 0 0
1610 2 9.928504442772294 15.427137711119414 1.7233070229572847 0 -1 0
922 1 18.001040319876285 14.30007940412764 12.539313543873384 0 0 0
2409 2 12.717837242000051 23.157214305137348 8.085074890893189 0 0 0
845 2 19.744149928685335 25.19260799039554 26.776607771606184 0 0 -1
1563 2 13.676531575935304 20.328545620217547 10.005760270705077 0 0 0
908 2 18.734532328205045 27.57763026350774 18.969313830515844 0 0 -1
893 2 10.092439271963695 22.911776935130334 9.139530109552581 0 0 0
1675 1 9.713520235082662 17.20714472018953 11.564269997039617 0 0 0
2677 1 12.066015511225732 17.25644551863825 18.80972968965624 0 1 0
755 2 11.739078775229284 21.579690993345693 13.440989070757269 0 0 0
300 2 12.42783496402171 25.81257064302415 12.230562348299289 0 0 0
1789 1 5.749250761768946 7.036346084178825 5.004839351817281 0 0 1
2414 2 12.146787674125331 22.03053776552692 11.319972961128595 0 0 1
5976 2 11.68821003260732 20.09503523652959 23.799332633660534 1 0 0
2441 2 20.3258430128964 18.644267988960536 14.49247884026969 0 0 1
847 1 11.2173738363961 19.569769352602208 7.3644299010674255 0 0 -1
1562 2 12.087531945622988 19.905491364272027 10.102440051314522 0 0 0
1015 1 20.355440678895413 28.038369923862287 5.163684123147551 0 0 -1
4269 2 16.23331306672988 31.6000591888907 26.874774533314962 1 0 -1
949 1 24.12034387683808 21.89945637554091 19.65401105609751 0 -1 0
113 2 16.185863779624896 26.18497484734234 26.601631513114473 0 -1 0
1641 2 9.962916104562058 11.751720615905274 23.988053638530143 0 0 0
824 2 19.03184586035424 26.965781427718888 12.970065258917126 0 0 -1
1600 1 13.298100269758535 14.864099042880369 11.488352497819886 0 0 0
2440 1 21.04747396485765 18.290464314151134 13.914243407921848 0 0 1
98 2 6.028477555508261 5.7969181082503765 9.391546237198726 0 0 0
2408 2 12.609705271422914 21.652696454081624 8.621318713739061 0 0 0
369 2 12.092480982297698 10.638854274309617 9.694692689704958 0 0 -1
1065 2 21.03382197106125 33.79302185663388 22.720546796890716 0 0 -1
1674 2 14.203250347857786 28.481189096402506 12.41187915088525 0 -1 0
2355 2 20.152639229081483 23.38758503708682 19.96055143392915 0 0 0
962 2 26.694844044290758 28.772331691832854 20.39735604464709 0 0 -1
888 2 17.41399059588872 23.86269933673889 19.382748299216907 0 1 -1
204 2 7.114729795360135 5.120940726911247 16.26143044837728 0 1 0
102 2 7.7012535547442384 7.190459849091622 10.31577503922897 0 0 0
626 2 13.919947434547588 18.437324713886927 21.300820519536558 0 0 -1
1447 1 26.46088224105427 21.90039710196545 21.192351928412275 0 1 -1
1665 2 12.18326421484415 24.178890957269466 19.719101213296334 0 0 0
147 2 13.085753918641647 30.950173431919453 14.616762329317059 0 -1 -1
1515 2 8.770803823711184 19.331936727178224 5.760029433644427 0 0 0
1896 2 10.220858230821538 18.78029951192174 4.020690005390281 0 0 1
1898 2 12.97705587231943 23.646083198228254 23.44534452913927 0 0 0
984 2 12.063018142061413 11.123537791141908 18.168708975815058 0 1 -1
588 2 5.152458659365222 3.1223458171870044 1.4370459312889237 0 0 0
909 2 17.583938674145834 28.536828543009634 19.489892001882247 0 0 -1
2668 1 23.658662798968304 24.11658510187559 13.998606892481547 0 0 0
2354 2 19.766459392641266 24.909065266088042 20.517779180081455 0 0 0
1740 2 7.363143846393766 16.500114949300468 2.048456562286845 0 0 1
2451 2 16.23458957522901 30.012554653440443 17.770616058993227 0 0 0
1273 1 3.2067015379080646 5.720722688617606 2.254560101101443 0 0 0
1132 1 9.123763542585596 10.666432085246836 8.326580732977538 0 1 0
785 2 16.873868088128656 27.194562224260803 10.39393966455407 0 0 0
1739 2 5.991727178372728 17.141996135318788 1.9427923080130913 0 0 1
1514 2 9.06147334359883 20.490552124020162 6.759297373936895 0 0 0
1058 2 13.300411915904139 9.938285455234873 25.565603406992302 0 1 -1
352 1 6.659402429493459 11.118639517901745 9.202678467805823 0 0 0
961 1 27.657757160293777 28.80619686119518 20.141969154221968 0 0 -1
885 2 12.800024739423542 9.073881345651628 19.87892661587403 0 1 -1
2396 2 10.934910585523557 26.292282665028086 14.05977013619465 0 0 0
1601 2 13.201003893515672 15.78143543502109 11.218087145230179 0 0 0
1677 2 9.203564936051553 16.651550143543922 10.935572447517869 0 0 0
818 2 8.599552716658575 6.100996381990527 19.248411266066878 0 1 -1
775 1 13.096986413508741 23.64354827244211 4.4179353280251155 0 0 0
1603 1 6.817834883229501 11.520141508370953 5.6153553001672325 0 0 1
783 2 12.798235493614484 24.899274889997976 10.37228103578148 0 0 0
1605 2 7.821933273948551 11.646511423858273 5.621117405011972 0 0 1
1068 2 7.517262106902726 6.464492736956316 22.068245328478717 0 2 -1
77 2 10.267291346613298 24.747081351618135 1.3213234428280156 0 -1 0
2473 1 7.244086805265105 22.033483107636894 4.813443579690822 0 -1 1
1877 2 8.969758808542412 7.730864486630696 18.276947658346028 0 0 0
2669 2 23.704418229665457 23.192572698806917 14.316518333633807 0 0 0
1884 2 8.433952418903026 20.566794430658117 12.328409496886888 0 0 0
1545 2 9.95096642956376 9.719326068733888 18.46028170848331 0 0 0
1016 2 19.631050617900772 28.56998830804769 5.483813429361892 0 0 -1
106 1 9.348239256719136 23.67437035544084 12.606609196452524 0 0 0
389 2 21.810107846725746 19.183556469043793 8.59713575471167 0 0 0
97 1 6.955457856029175 6.083890364229964 9.369883727866673 0 0 0
2532 2 19.525483304171992 18.985290109016503 18.624050490288642 0 0 0
2641 1 3.715720482252612 3.0498847714256887 8.295970643541375 0 0 1
1513 1 8.348294965722175 19.913299430400468 6.409471436336652 0 0 0
1078 1 18.621726689191075 20.749674314359016 16.383574437730704 0 0 0
963 2 28.075064467185896 29.129157592836055 20.9856122939569 0 0 -1
871 1 10.835109251684337 19.035900765386753 22.68713624846859 0 0 0
2353 1 20.32046389314658 24.383780889180176 19.94564301516734 0 0 0
1105 1 5.911746801488058 19.830659704255307 2.7052346185088294 0 0 0
417 2 13.25628560719234 17.038890505519383 15.726225956188681 0 0 0
985 1 10.198990326102184 15.357162293625802 17.354446579664376 0 0 0
2627 2 14.302317809428462 26.773371033262396 19.575581908054776 0 0 0
76 1 9.630099734327658 25.466929756457546 1.2527317954858215 0 -1 0
298 1 12.904617364864649 25.022978159864383 11.932591106331817 0 0 0
1621 1 7.2414935183844245 15.092723671420002 14.199473418083546 0 0 -1
4264 1 8.6741170709541 19.042006586215162 13.222359401773753 1 0 0
612 2 17.966835423577162 30.43570076143025 11.150969782992668 0 0 0
797 2 11.041088174236641 12.59226116669346 26.369673677094752 0 1 -1
1079 2 18.202228696559903 20.684375119915625 17.278698139530718 0 0 0
883 1 12.176406993745374 9.627276923724944 20.482456069890446 0 1 -1
2442 2 21.757082677912017 17.80511608103878 14.465055324551901 0 0 1
1915 1 15.912478654924172 26.19821274049188 6.870792337744729 0 0 0
2637 2 16.914155356616245 29.97737620874605 24.283850518032214 0 0 0
838 1 25.213374751908113 27.252037704104172 11.692995072599432 0 0 0
273 2 13.144302617006552 19.47828166433274 16.44931748157419 0 0 0
983 2 13.617060999434177 11.078053672920662 17.522645164214005 0 1 -1
923 2 17.028901678380056 14.263127314337394 12.359830794299391 0 0 0
1067 2 7.758374000078711 7.188191071994313 20.720045576547886 0 2 -1
354 2 6.437381277846904 10.727418265571764 10.0844977262044 0 0 0
156 2 15.841959930282592 30.686975296863245 10.28541451521344 0 -1 0
1589 2 10.775450531303175 22.106570470266018 2.6463851425486964 0 -1 1
1616 2 13.554463523285104 23.709928569752435 15.93047950051725 0 -1 0
1050 2 8.002619708826945 23.943385370217193 7.1017201651795165 0 0 0
1638 2 9.321855914130573 11.728459227711827 21.75967075820824 0 0 0
1594 1 16.704068182345893 18.90349799429246 20.540208869648072 0 0 0
2445 2 7.9440288668668915 15.181927395415862 9.65917109631379 0 1 0
1588 1 10.210866550622601 21.564801848357956 3.181342336878159 0 -1 1
1150 1 18.497201091974834 22.558427659002835 12.599449624516787 0 0 0
2574 2 15.23820837455079 27.10373247654421 14.989648902815253 0 0 0
313 1 13.636578113356286 18.144592561843226 8.245052386134805 0 0 -1
1118 2 21.71552981412642 29.984607373197075 21.390530623935206 0 0 -1
1872 2 12.286938064070242 19.48248269992371 13.516116893594544 0 0 0
2613 2 21.368316729993843 28.130706559021434 13.126655236119236 0 0 1
1133 2 9.67372795659977 10.63659079272393 9.16080871001341 0 1 0
1762 1 6.413396211553983 9.905814225994483 11.709992610530614 0 0 0
2556 2 12.770445398855156 21.569350880518325 21.156499456532046 0 0 0
2548 1 16.271339121417288 11.50157894194809 25.456015229958698 0 1 0
1870 1 12.613131155615282 18.760942583692714 13.014829685098064 0 0 0
1662 2 5.7663908157258055 9.060593403787697 4.189206792575482 0 -1 1
2566 1 22.49574475778559 7.150983519769558 24.688733740480536 0 1 0
1736 2 15.332871546613998 18.399866896465824 8.358858313899097 0 0 0
2643 2 4.6365670197645255 2.759618442196539 8.140648480607378 0 0 1
1109 2 8.962182879583704 3.350868964643499 9.184157822921302 0 0 0
994 1 5.428683726630969 12.430304721377608 2.9172712984480262 0 1 0
360 2 4.710577122788322 18.700390528949335 1.2739217985303406 0 0 1
2555 2 13.801036154489438 20.554164809559182 20.62999421464406 0 0 0
374 2 8.121236972036414 5.0039364463819735 2.495408322793122 0 0 0
1801 1 14.48736171895304 20.964383766336866 6.337750095684892 0 -1 0
442 1 21.307408047888067 16.610989868490886 25.943284959243545 0 0 -1
2601 2 19.552283962980336 26.971417226964068 4.1413884298902905 0 0 0
2600 2 19.297632081842973 25.87970257004701 3.0799957967499907 0 0 0
1518 2 14.900542155947807 3.275552717600382 4.970135730706759 0 1 0
2444 2 8.242252649292865 16.71340432290242 9.098837100642408 0 1 0
2452 1 5.118380143429802 17.689827379459082 4.763857918928353 0 0 1
294 2 7.79790470296838 15.454625906364171 5.488666128209838 0 0 0
2307 2 12.64875219498197 26.679552187331723 6.343386496477897 0 -1 0
1119 2 22.116955218322204 30.543097414330756 22.83208699157927 0 0 -1
1088 2 23.903574425667006 30.982475215840868 24.461873372501124 0 0 -1
271 1 12.550056335560587 18.700568037516796 16.49457044216826 0 0 0
2463 2 5.701707019210535 11.591233054450843 0.18842872574622402 0 1 1
2306 2 13.635860614072008 27.16541938350365 5.098756668694008 0 -1 0
1622 2 7.653465170354376 14.448893785867721 13.555525172935308 0 0 -1
1089 2 22.949111019150305 32.112273193582524 25.154908831565653 0 0 -1
2468 2 10.827022635573716 14.860535595962949 4.036462449854653 0 0 1
1676 2 10.18875873172362 16.52750642532463 12.146260384880268 0 0 0
776 2 13.36892452012506 24.389625390565893 4.971789203067229 0 0 0
5973 2 9.58069467361323 19.491175477655503 15.012595605681907 1 0 0
955 1 20.604565563052624 22.996057641485375 6.21667799113852 0 0 0
944 2 15.312046572777945 23.941138673818223 26.540715620400388 0 1 -1
2604 2 16.66963799351705 20.065294083066785 18.933835401711143 0 1 0
2285 2 23.976029108372018 30.293690801105786 18.442624198665154 0 -1 1
1134 2 8.178470912689875 10.843866901815726 8.654379208491372 0 1 0
2567 2 22.241802691161556 7.811936663032474 25.376171886886734 0 1 0
754 1 11.994242712331015 20.938991578667206 14.161507591068858 0 0 0
2325 2 21.114155011740415 27.1394051655657 19.80997051607245 0 1 0
1735 1 16.239014795560962 18.76158359909677 8.470389078972488 0 0 0
1059 2 13.638623151843149 10.480296839120635 27.019824769210697 0 1 -1
2413 1 11.847814291059596 22.58054532991233 12.03382383132487 0 0 1
895 1 10.549708586994285 5.384872644391638 19.643342593841158 0 1 -1
2603 2 16.982482745659848 21.549551590565432 18.944134255359945 0 1 0
2554 1 13.722709514244375 21.49084501292537 20.907090297601385 0 0 0
2629 1 4.212022725122361 5.407581254488512 9.736711127764385 0 0 0
2305 1 13.118814224133537 26.41381477718379 5.55621875346056 0 -1 0
443 2 21.78372767573812 17.256979251424642 25.360305698613615 0 0 -1
195 2 20.291727791807645 31.78875810738493 22.84305706571701 0 -1 -1
149 2 0.5523005777167671 1.9473875799126645 1.4984529986561725 0 0 0
268 1 10.949067952025434 21.677910541913597 20.539761434892213 0 -1 -1
177 2 30.037310968854996 29.434426425816824 22.343273523426845 0 -1 -1
897 2 20.37639669247021 32.74952553664202 19.263558305401805 0 0 -1
1492 1 18.187631097186895 7.111007822802975 20.019388184377906 0 1 0
725 2 9.859220204622197 26.997133078473933 3.510314528791959 0 -1 1
2456 2 12.23421834274787 19.145013276354703 4.001584759163681 0 0 1
1672 1 14.275644981139802 28.27177377532979 11.50215065919281 0 -1 0
5036 2 11.142563816267696 16.46336099082503 26.978610965677984 1 0 0
1117 1 22.17183341501932 29.76114531293807 22.251246482763488 0 0 -1
1737 2 16.75533518118282 18.274924066273034 7.81908583724322 0 0 0
5035 1 11.72947815208122 16.737387525345348 26.320460520646595 1 0 0
1682 2 5.57646042841577 2.058962260293016 6.5894431850070445 0 0 0
368 2 11.421123337457779 10.162566166461897 10.997471550744972 0 0 -1
5037 2 11.983546008477237 17.63488635097643 26.568764461312274 1 0 0
759 2 19.32077533330905 22.691035705513183 7.2687820810427555 0 -1 0
299 2 13.839991497072184 24.983289850954424 12.325457434491666 0 0 0
444 2 21.139171352807665 15.874014734176354 25.254563155421238 0 0 -1
2513 2 16.15568901621858 23.82532952479879 11.243505640222093 0 0 0
46 1 21.764063461779095 29.395406510861022 26.156704372746724 0 0 -1
1681 1 5.209977350618729 1.9544296335952558 5.725529836479393 0 0 0
2467 1 11.541594735899839 14.843156227248645 3.387294871262541 0 0 1
1596 2 15.72545969118514 18.73813507257251 20.34253573984147 0 0 0
1615 1 13.705758178426802 22.87339871417439 15.394988199422738 0 -1 0
1865 2 4.72634974371975 3.6167829561574036 13.813245837702638 0 0 0
1151 2 19.074843844996 22.84662354506866 13.31957776514842 0 0 0
1691 2 16.190802486490387 24.837528261309203 2.6085139597580955 0 -1 1
1130 2 14.531840997118131 16.728513404025637 18.616501586158485 0 0 -1
2612 2 22.59360677711775 27.241079963536322 13.607728722456345 0 0 1
1879 1 10.170755064467258 19.30666743863388 19.505720944642903 0 0 0
5 2 9.74762673760696 7.2328783012208735 1.4431660381723834 0 -1 1
1110 2 7.923333819440278 4.602174351835059 8.996699044332157 0 0 0
1876 1 9.135374622347513 8.444125441843148 17.582477799892136 0 0 0
2563 1 8.86109035721924 4.37809531767155 5.6462643985083485 0 1 0
2630 2 4.089606424047348 4.66792930874256 9.13175994163727 0 0 0
216 2 21.779032821674715 26.10511686166772 7.259808305872822 0 0 0
819 2 7.270761562438143 6.122521611975587 18.374344855388642 0 1 -1
373 1 7.249895792134409 4.581652581941375 2.2429287854785387 0 0 0
1049 2 7.981899833090993 23.321641124542086 5.666034474804645 0 0 0
2512 1 16.848103434684653 24.281166737468567 11.772415473862107 0 0 0
2329 1 7.48960193703654 24.648277099752992 3.0301069343451643 0 0 0
1900 1 14.295165023610402 8.974126526190952 24.39142220994799 0 0 0
375 2 6.881379425279088 5.265146721477319 1.5671357771866556 0 0 0
1668 2 2.5922280570845233 8.822951589143022 2.914410908690007 0 0 1
2439 2 9.801717518487628 9.205293478094754 7.120729512123962 0 1 0
2545 1 3.898903406797481 4.654964057228926 16.92921475180271 0 1 0
844 1 8.827801101538217 18.17051781362157 0.17688858701027893 0 0 0
105 2 8.462804454104813 12.350348609376027 13.118947090018677 0 0 0
1611 2 9.109103546395286 16.509666954307555 1.0593154402700862 0 -1 0
314 2 13.475779423571993 17.213038064986176 7.9489970632148 0 0 -1
2602 1 16.733804431897646 20.873181490929056 18.36094135482408 0 1 0
1673 2 14.980243319274905 27.611675835024446 11.446264467340768 0 -1 0
1560 2 12.5487630253084 25.955210584362643 0.23384620368996395 0 0 1
2598 2 14.010553912660054 24.418263013516295 18.921334410282853 0 0 0
2863 1 19.85774104560996 10.37967692797674 22.54179242903011 0 1 0
2469 2 11.562487875610724 13.875160846485977 3.101211582202337 0 0 1
954 2 13.836648283518251 1.1149720048069618 1.0620911322954234 0 1 0
385 1 8.36125034800681 10.082452909975808 2.580205633127715 0 0 0
154 1 15.974008270957576 30.427386471622555 11.23548119570512 0 -1 0
1032 2 23.00386781636044 24.970642068596344 4.0715097938207965 0 -1 0
1152 2 17.921865227885803 23.337598381241804 12.30133461768489 0 0 0
625 1 14.03275459244475 18.81079679605946 20.390776006797964 0 0 -1
1878 2 9.61950893592702 7.980331219092469 16.896375606308194 0 0 0
2437 1 9.98921324132436 8.287604503198656 6.775495562211679 0 1 0
5277 2 7.826109773468242 11.073123299568415 14.331195960781248 1 0 0
920 2 22.558024850225834 17.694343771429573 21.34727668450351 0 0 -1
284 2 14.127833672154921 6.5870125119291565 22.22023436836036 0 1 -1
1107 2 5.814647963728347 19.048636028471126 3.3109321284504754 0 0 0
820 1 15.806018871402536 27.882200812174727 22.392983328790837 0 0 -1
2670 2 23.29417058293856 23.969842960050098 13.074632629188857 0 0 0
117 2 22.314511295554844 27.618034193843588 21.63643579229317 0 0 -1
5275 1 8.228279481530759 10.768906645756507 13.522123463182997 1 0 0
5055 2 13.602902419979245 30.10135928565914 16.73563095406019 1 -1 0
1085 2 16.806237809227596 23.434280184508165 5.185608961177565 0 0 0
848 2 11.068367379483561 19.240024033138717 8.282226632495973 0 0 -1
5974 1 11.97553800536992 20.530329237929788 24.62589489458427 1 0 0
1084 1 16.789477533422602 22.601889377659848 5.7655623805113345 0 0 0
1910 2 5.102094546959148 7.536989619206821 13.552976936912378 0 0 0
1087 1 23.001456854034284 31.312383174319688 24.534359387674005 0 0 -1
796 1 10.88167639768242 12.499596985515712 25.38551248218336 0 1 -1
916 1 2.7545002339616476 12.90047159061375 2.532488178217426 0 1 0
777 2 12.39127217069413 23.203165655824954 4.849353341613724 0 0 0
308 2 16.000086441624855 8.567205416812609 21.894665349648626 0 1 -1
309 2 16.566127502811845 7.70781953763743 20.685133390142205 0 1 -1
3003 2 7.3255193190375545 1.4489318384357408 4.927698812807096 0 1 0
1809 2 15.94241187012172 14.614883874397123 9.761786043835992 0 0 0
880 1 14.947928085462443 19.806427867901572 24.326726562411675 0 0 0
315 2 12.979258751606856 18.71296620892712 7.943810838666992 0 0 -1
283 1 24.00535902862917 33.9245448865467 22.704642357422784 0 0 -1
386 2 8.291317536450876 10.893924079269809 3.1617844502917087 0 0 0
917 2 3.6586551261514932 12.658556081810078 2.8532676544507947 0 1 0
726 2 9.292289911399077 27.097726955178317 2.0429302537405376 0 -1 1
1721 2 22.816180431634482 19.40319254605749 24.325692462468826 0 0 0
946 1 6.991124400310922 9.85235050710883 17.675309138486607 0 0 0
387 2 7.564257296955144 10.049368234050572 2.0077819409472557 0 0 0
319 1 15.266054427080537 23.419377875536647 9.944781617909545 0 0 -1
1559 2 21.664646398610753 33.820031199041665 26.57414683034085 0 0 0
1683 2 5.4629289887659835 2.8030767045443015 5.304381401105245 0 0 0
1558 1 22.5138692885088 33.30495607208746 26.534215387891983 0 0 0
1763 2 5.518125681946006 9.965827983438261 12.006601761157391 0 0 0
2339 2 12.858340876804117 7.942675032470521 1.0053407789811128 0 1 0
104 2 9.441103750714277 13.38174712942991 12.352631757222593 0 0 0
285 2 24.329440123024785 34.03146914697517 23.59527740510192 0 0 -1
2549 2 16.133588123014835 10.58942614462002 25.955355208628294 0 1 0
830 2 13.083023333094498 29.015934650969815 10.360169200286563 0 0 0
1802 2 13.810878847977698 21.437369470781253 6.893116616410305 0 -1 0
2448 2 0.8759233363632473 2.4943644059045704 6.034688800553793 0 1 0
318 2 14.658995583279719 31.547096538566546 20.91133823700015 0 -1 -1
320 2 15.298453255703564 22.437977925478297 9.696912078103306 0 0 -1
2022 2 27.309690451367175 23.451647951340735 25.520346477368527 0 0 0
333 2 17.05460665301675 29.859471050716063 15.581956380620415 0 0 0
834 2 16.694836307458885 29.118601138772245 21.266191809772064 0 0 -1
2768 2 19.319311138646636 16.051314853768535 21.60278686800459 0 1 -1
123 2 17.220810528340156 14.493052300432025 22.467436293476425 0 0 -1
367 1 11.32229323896776 10.76429487144408 10.23824021720776 0 0 -1
1583 2 14.10504384674357 18.294062226639504 5.024576026660727 0 0 1
202 1 6.637534296985453 4.97933330459854 17.097993981668132 0 1 0
1136 2 6.892232831172561 8.784713532507594 22.305185973314618 0 1 -1
3001 1 8.247140035425833 1.6838376221646896 5.1396865661011 0 1 0
115 1 22.390129875251827 26.814420206554704 21.057806924479117 0 0 -1
116 2 22.340727309687 25.999882036545387 21.596254791802448 0 0 -1
817 1 7.786188291468432 6.5884831918862234 19.123927505115027 0 1 -1
724 1 9.45817308555533 27.62381915262881 2.9073517445317796 0 -1 1
2415 2 12.350251627221532 23.40677546797076 11.998786358172296 0 0 1
829 1 12.720077432633296 29.274617561441207 9.515050535813636 0 0 0
1048 1 8.346278439233142 24.08341947000865 6.207237573048151 0 0 0
2453 2 5.879448544965766 17.11666630961238 4.643781584121825 0 0 1
20 2 21.374588147380653 7.4422515700652285 23.575994518653765 0 0 -1
1086 2 16.92104171623592 21.855323934480506 5.1489811045258636 0 0 0
627 2 13.36658417553668 18.326344709300276 19.85555771362349 0 0 -1
1083 2 22.97211918545407 15.37069282478267 21.97592235877122 0 0 -1
2514 2 16.787095643024394 25.23182456550857 11.434687018663087 0 0 0
275 2 9.953077264309002 7.359040973314346 26.68400809995855 0 1 -1
2565 2 9.655704514734968 4.335549542621371 6.246066345263794 0 1 0
2550 2 16.44196370435169 12.132492916644667 26.191798926330122 0 1 0
936 2 18.364722020327456 21.52417288733402 3.703147492505952 0 0 0
1881 2 10.540378345909598 20.026801002687403 20.03207380973427 0 0 0
1803 2 15.165988673648602 21.584998764879323 6.09729773536622 0 -1 0
2338 1 12.418773312227241 7.547751741995406 0.18767220869548126 0 1 0
2438 2 10.102547849047191 8.323157367250612 5.840515975104347 0 1 0
5966 2 11.54319470567135 15.011391203102615 13.80209148601264 1 0 0
2569 1 19.36288704179836 28.30619786462779 7.992220395879794 0 0 0
1235 2 7.837124420938141 5.427616544688759 14.191223695383917 0 1 0
632 2 10.178356327791864 19.839970592432657 9.660503566675871 0 0 0
155 2 15.355058737595733 29.579613610112695 11.348289170288352 0 -1 0
47 2 20.88005555075274 29.720966560965312 26.04303916463525 0 0 -1
2681 2 25.609394185358976 24.934074958346084 22.811735922436945 0 0 0
1234 1 8.405605926619916 5.164743554961923 14.984890000958545 0 1 0
269 2 11.118348005265581 22.576355362430686 20.20220586815034 0 -1 -1
2358 2 17.806909504352713 18.81245506502724 23.425048510101163 0 1 0
2682 2 24.18184441199467 24.781539270393196 23.299724907916563 0 0 0
2449 1 17.018880516759523 30.306067414799372 17.173620762585422 0 0 0
2680 1 25.09558704409844 25.127113181380334 23.611953767911785 0 0 0
1236 2 8.743150301791427 4.265229681153684 14.709124568604368 0 1 0
1000 1 7.417910720687433 17.642821441772355 7.969913973856198 0 0 0
276 2 19.134732388563343 34.37755867682109 26.436088927086036 0 0 -1
1582 1 13.343536489705205 18.920616504881018 5.10065587354495 0 0 1
1970 2 16.093576444644235 17.70915385701753 11.340366388470734 0 0 0
828 2 11.523059134014165 26.443175906137956 16.40589995177852 0 0 0
3738 2 2.940602903997208 7.874476530775819 5.996147459488486 1 0 0
1886 2 11.423209168005062 7.951175535148858 11.913674104569555 0 0 0
1907 2 17.25863688688553 17.05629582255868 27.033124994876275 0 0 0
128 2 8.480451309731016 7.289501740133711 6.745656115937992 0 1 0
1890 2 9.106449840386993 13.927934855907118 4.747245134028792 0 0 0
3500 2 3.741287135591034 11.764826544868011 7.017807326993998 1 0 0