LAMMPS data file via write_data, version 8 Apr 2021, timestep = 4460000

1008 atoms
2 atom types

0.12101451086851131 18.362385489125078 xlo xhi
0.07180439592254896 22.34539560408171 ylo yhi
0.2458168745452292 19.144365125442793 zlo zhi
0.1210417094592229 -6.549602189312143 -0.08938876296427758 xy xz yz

Masses

1 16
2 2

Atoms # atomic

1 1 1.4798234774921843 4.3010717752455845 2.5623190886370377 0 0 0
2 2 2.1858815372369365 4.892268670087088 2.9174516513690127 0 0 0
3 2 1.3082728112583093 3.6290954659853667 3.298618493993799 0 0 0
4 1 2.8229403793707726 6.1650977770288655 4.143383206443421 0 0 0
5 2 3.53564161570998 5.685324638286106 4.576942766895749 0 0 0
6 2 3.1584012476382086 6.941513330405987 3.623217970441756 0 0 0
10 1 1.110267118480488 2.8382433207317157 4.803240673863401 0 0 0
11 2 1.404288822508941 3.477592585436029 5.471384434062575 0 0 0
12 2 0.201298894751335 2.558605617712536 5.098063977942478 0 0 0
14 2 2.007498847623674 3.124734531925922 1.2536529419567781 0 0 0
16 1 3.1737636867816907 0.8583789029988654 2.409080561443942 0 0 0
19 1 0.4427855719727749 0.9937894928540348 2.795121533861923 0 0 0
24 2 -0.7636325547774014 1.3079523917132152 6.800260485809832 0 0 0
28 1 1.401131384843023 2.5017403937005125 8.684671361510114 0 0 0
30 2 1.0082037959847132 1.7717206288474796 8.078671686863938 0 0 0
31 1 0.46048853528209344 6.538006517204306 5.190859882177781 0 0 0
32 2 1.3720686051306188 6.242523726905227 4.9888972825190105 0 0 0
33 2 0.24241841503461248 7.079479106645034 4.407333388339327 0 0 0
36 2 -0.43292583673470064 7.02845308683306 8.624964622197762 0 0 0
37 1 -1.337610951939985 4.553907739244814 7.388684268581599 0 0 0
38 2 -0.35767282879727214 4.574551837071822 7.2947759583442595 0 0 0
39 2 -1.346318392742945 4.224244280802396 8.312118550264508 0 0 0
40 1 1.318320410051653 4.423438959079503 6.939056564152832 0 0 0
41 2 1.8139914987688983 5.234875270086744 7.237392183227111 0 0 0
42 2 1.53536070281373 3.703377564976017 7.556973745863587 0 0 0
43 1 4.408913665022841 3.1628016783877104 7.548557009226428 0 0 0
44 2 4.773198544480323 3.7783403157640705 6.83515777218839 0 0 0
45 2 3.734097532209639 2.6384773189158945 7.043906484075285 0 0 0
46 1 3.2301662899463084 1.343813313847925 5.863624294041924 0 0 0
48 2 2.41690800470283 1.7844771484360358 5.47857131232175 0 0 0
49 1 5.988698456196074 1.184915906017532 9.025524193477855 0 0 0
50 2 5.456262109948137 1.8388006250337057 8.489206502615263 0 0 0
52 1 4.967492782805368 4.351427600242144 5.158226299554154 0 0 0
53 2 5.871222689894154 4.667548923949463 5.024604625866569 0 0 0
54 2 4.904181931782272 3.65610049546964 4.460195498096356 0 0 0
57 2 4.228623061904437 3.795728098493557 9.168561576407127 0 0 0
58 1 2.995427547941624 6.750162476524186 7.6970873265245725 0 0 0
59 2 3.8093801410813115 6.231257602217851 7.721512932141281 0 0 0
60 2 2.974138919245301 7.300362861041765 8.46162315237426 0 0 0
61 1 5.58126504014386 6.487201030786397 7.365048234801684 0 0 0
62 2 5.732124531412771 7.287520940522738 7.943900875508935 0 0 0
63 2 6.283841546229838 5.811378943253235 7.505769579759583 0 0 0
64 1 5.974179042406565 6.531876281811695 2.710980752364708 0 0 0
65 2 6.768279379068581 6.001824481265592 2.9968443486569893 0 0 0
66 2 5.784967754613054 6.980796859821552 3.5800761814207056 0 0 0
67 1 7.678335829721692 4.922683310894483 4.075156769787569 0 0 0
68 2 7.95786480831228 4.075074084310736 3.705850776333198 0 0 0
69 2 8.414556796107117 5.311625188098128 4.585703353902381 0 0 0
70 1 4.821036696418412 4.957019282892618 0.9406370869010041 0 0 0
71 2 5.070272523270208 5.69593507435244 1.5798016151588916 0 0 0
75 2 4.586697209537354 0.685161780716973 5.188516703525245 0 0 0
79 1 7.808022193219675 2.913916103337942 2.4718559777729254 0 0 0
80 2 7.938969017582162 3.3155049992855523 1.5594041614418261 0 0 0
81 2 6.896909098773621 2.673024781960493 2.6315243739698975 0 0 0
82 1 4.928143344523622 2.815082598932267 2.9873212772377036 0 0 0
83 2 4.9481319173939475 3.4598432657360982 2.2731695819330695 0 0 0
84 2 4.3005384160608475 2.1530750325514743 2.680948651319425 0 0 0
91 1 9.29723779753382 6.0806998401724455 1.459499936581462 0 0 0
104 2 8.955592085307309 1.676795193729953 2.7289283735493317 0 0 0
109 1 7.508833056478727 2.122506123286592 5.882549422386078 0 0 0
110 2 6.75366000890284 1.5336586590825882 5.6413103561978195 0 0 0
111 2 7.125910387280995 2.8445292500298796 6.434069199612259 0 0 0
121 1 7.38671188569963 4.5226747008317 7.6718090698230785 0 0 0
123 2 7.570664799717931 4.220288691666663 8.614330884899713 0 0 0
153 2 -0.8000544876595294 5.542945198046133 4.1448890126082025 0 0 0
180 2 0.1853452534202417 9.927091297998713 4.695031343587999 0 0 0
184 1 3.2331310703277776 8.288873514931561 2.453073649783855 0 0 0
185 2 3.1270868023377947 7.754415866893329 1.6534920531258528 0 0 0
186 2 2.3459376989000775 8.652777776250625 2.5935027603330605 0 0 0
187 1 0.38255072140883395 8.069258074440121 2.947402454666972 0 0 0
189 2 0.4208691223080925 7.374539988222074 2.1986033362404727 0 0 0
190 1 -0.20164904250499185 7.825359853006665 7.228147168527692 0 0 0
191 2 0.121178557811568 7.420422977674664 6.384773332210568 0 0 0
192 2 -1.035496061534206 8.370810600980489 6.997623683219349 0 0 0
198 2 0.6663275148710138 9.224372003828936 8.059398133452524 0 0 0
214 1 3.1684786557563576 8.816106986223497 5.681688274687841 0 0 0
215 2 2.959707543275674 8.15857594646635 6.3573485279041515 0 0 0
216 2 2.294236451677087 9.098871410943977 5.327357488763513 0 0 0
217 1 5.918459878874043 8.785223799716738 8.741936116038355 0 0 0
218 2 5.498896696007782 9.288091271188614 7.998096007241182 0 0 0
241 1 5.399663185115245 7.615463660741832 5.008995204926764 0 0 0
242 2 5.362760141249042 7.137492968329695 5.85506033816699 0 0 0
243 2 4.572854072811547 8.136088708959196 4.953717426690718 0 0 0
245 2 6.372258075960698 7.68288141453053 1.3473670622618303 0 0 0
247 1 8.041885458304083 10.519303845475987 2.420351945555566 0 0 0
249 2 7.168561715890727 10.35873811799959 2.825900136651519 0 0 0
250 1 4.937229080633495 10.506282470099732 2.7450248168365303 0 0 0
252 2 4.377937471146642 9.795822281135132 2.518607009179392 0 0 0
272 2 9.0883035635086 9.177241839504138 2.7666730293036204 0 0 0
273 2 9.519255576254464 7.685212944189755 2.2260189596548665 0 0 0
277 1 7.309350263232553 9.453934027521036 5.911348083203999 0 0 0
278 2 6.549755691334329 9.152532807197664 5.4062929052369215 0 0 0
271 1 9.694739747905704 8.418384798677462 2.9112702061939553 0 0 0
213 2 3.831785915988666 10.050253612418773 6.5600944903548735 0 0 0
93 2 9.673136363732539 5.406676228503273 2.099693301607446 0 0 0
196 1 1.0902670568688555 9.931837838946759 8.623484023990152 0 0 0
9 2 0.5290974249983129 5.391978311190106 1.7205008570047635 0 0 0
18 2 2.212576396385495 0.9376531962182927 2.555839819896527 0 0 0
279 2 7.124101313077919 10.349767595364476 6.304123857381375 0 0 0
181 1 2.108738539367757 10.367663120656115 0.31476805000269686 0 0 0
108 2 8.583435132900796 1.0893661069033076 7.003187508462731 0 0 0
276 2 8.119346421230643 8.180584719395773 6.844320825153347 0 0 0
103 1 9.6887638358736 0.9863452004689163 2.669464560886708 0 0 0
96 2 9.145820590431892 2.8742197939030434 5.357985357298937 0 0 0
264 2 9.157785812953204 9.873194073323564 5.507725128211038 0 0 0
122 2 8.25847378734922 4.781053311052894 7.401013546418538 0 0 0
117 2 9.846831505675246 7.530992278224081 4.36671140516261 0 0 0
98 2 11.204227246545793 3.3687377281830715 1.4141417189494125 0 0 0
87 2 10.260854878077653 3.6822008587859125 3.4669613724143353 0 0 0
274 1 8.781817377432985 7.555153713729492 7.256101338013847 0 0 0
115 1 9.85561945626932 6.777481271673623 4.98359211650266 0 0 0
94 1 10.028005090229064 3.2890249635899065 5.22374916620136 0 0 0
275 2 9.158376264607412 7.140233413056283 6.453806357799334 0 0 0
120 2 8.558781550160504 6.7777128606631045 8.870575689137743 0 0 0
85 1 10.673888448724584 4.232831574774679 2.7922772348886293 0 0 0
95 2 10.067101251188502 3.9264998613629496 6.009762317750363 0 0 0
270 2 11.583217945131954 8.52815045472154 2.954771251133855 0 0 0
188 2 -0.2505795560050553 8.77638079745543 2.6871319246998144 0 0 0
73 1 5.513719836459917 0.4338634822042875 5.109718123398497 0 0 0
262 1 9.955560642098652 10.417745097734413 5.484468121067624 0 0 0
20 2 -0.11870219242732785 1.7560689675240095 2.6553419613189493 0 0 0
116 2 10.791993485782207 6.4664513843309095 4.896878966226707 0 0 0
102 2 11.551751994811573 1.1136202022795345 2.508844184512791 0 0 0
86 2 11.343353179126034 4.754642998341004 3.2949805429016767 0 0 0
114 2 10.095589768277714 1.8415348327048735 8.359021898685471 0 0 0
124 1 10.177435294168768 4.524077268090736 7.514896247129465 0 0 0
282 2 9.953554419623657 8.758533612263344 8.26167887578121 0 0 0
132 2 11.348737260723501 2.031651027732613 5.4311871961661 0 0 0
100 1 12.524773962904181 0.9001426893156704 2.473901560806065 0 0 0
126 2 10.391942887776693 3.8449022728941578 8.203207163359934 0 0 0
125 2 10.823181491374168 5.263029109511861 7.555488540985365 0 0 0
269 2 12.455097176634771 7.915093973677221 1.7313121621679748 0 0 0
300 2 11.367559665024451 9.161857352877938 5.843304679698415 0 0 0
268 1 12.518774941996604 8.27838627969304 2.6650112916375246 0 0 0
280 1 10.258946906603851 9.505003980132768 8.868129329458501 0 0 0
112 1 10.45756567827019 2.446869025566284 9.012401326376828 0 0 0
88 1 12.336610027743124 5.880676949711075 4.075234013914961 0 0 0
90 2 12.488858774467717 6.665513972755483 3.538750451242375 0 0 0
131 2 11.868746059563975 0.7853128992203128 6.179451514163411 0 0 0
299 2 11.922701250439616 7.807059029296625 6.521833311943581 0 0 0
130 1 12.15854316305109 1.6411013692605474 5.850085590990475 0 0 0
298 1 12.16425376887275 8.653362745198375 6.0882129149599 0 0 0
336 2 13.586299003689756 9.571319217447698 2.795366520042934 0 0 0
168 2 13.435430780469247 2.383822577586447 2.474479505469622 0 0 0
167 2 13.748300237710136 3.9364118186231223 1.951447287097909 0 0 0
154 1 13.827780455703136 5.128189238957889 0.9208195320523458 0 0 0
142 1 12.047193869301175 6.567922156291806 7.675340635388682 0 0 0
89 2 13.27034263790252 5.592729530116524 4.282931687213385 0 0 0
144 2 12.216897004647796 7.2113596394634545 8.398073167628562 0 0 0
622 1 11.812523163384482 6.868039131116914 0.5769624922689787 0 0 1
178 1 1.1030194938477973 10.135518988707654 4.766049152754777 0 0 0
193 1 -1.4284092542397935 9.735558389643014 5.813248980326549 0 0 0
7 1 0.20664470699142584 6.072516878595189 1.1007527009817557 0 0 0
23 2 0.22545528413568267 0.1167435910935258 6.469603615078695 0 1 0
22 1 -0.05730467988306939 0.6957632080204991 7.164836606333744 0 0 0
8 2 17.74684159095361 5.639973647673887 0.5888181470679447 0 0 0
263 2 10.015335289669553 10.970987288164084 6.285914508569949 0 0 0
251 2 5.0246458450146525 11.09202260031827 1.9252437896403558 0 0 0
106 1 9.308528583562785 0.5902332800488018 7.4048216288048385 0 0 0
244 1 6.680617241686375 8.052183522632747 0.4623940221727973 0 0 0
107 2 9.659159474945827 0.08952397351287655 6.628222452272683 0 1 0
77 2 6.457840242021197 0.07205320854839292 1.105239952714434 0 0 0
486 2 15.069689298314495 0.2944097753446209 3.236169823732414 0 0 0
301 1 14.999910474993303 8.855130594192849 8.634697091498321 0 0 0
295 1 13.596513789338282 10.696237533758042 7.234123142242667 0 0 0
161 2 15.460796644069921 0.24719373528040367 0.922062149529898 0 0 0
135 2 -2.606623873425036 1.9878161323200343 9.197372673332861 0 0 0
197 2 1.810652345315527 9.472351528132563 8.999940117850347 0 0 0
155 2 14.264178754218113 5.8564509938698714 1.5135509227624402 0 0 0
334 1 14.297446743877513 10.266117649048272 2.810350835373197 0 0 0
166 1 13.885916683954056 3.2286304639627996 2.6161599625931125 0 0 0
297 2 13.250828161973592 9.861196952972572 6.799310490170222 0 0 0
129 2 13.119058236347472 2.6352283463339488 6.849955376490992 0 0 0
327 2 13.935251697780542 8.335358122019205 5.1180000996209625 0 0 0
143 2 12.890950153894346 6.204240691253107 7.431052782641269 0 0 0
159 2 13.621821045391638 1.480858968482932 4.747728532259915 0 0 0
138 2 14.232005633025986 3.7920978977869804 4.0663915702774736 0 0 0
329 2 15.734029632893176 7.824080782026665 1.068868834793106 0 0 0
325 1 14.86514853491119 8.093170895040855 5.012164306394607 0 0 0
136 1 14.33358023642041 4.429990386343603 4.829320879622143 0 0 0
150 2 14.918839412247172 7.569742679025747 3.2550494578678166 0 0 0
148 1 15.159222818137785 7.0854387831791055 2.4883740058936548 0 0 0
141 2 13.055279265334125 4.1562749417987455 8.824346063168656 0 0 0
127 1 13.621997348175487 3.333041780080071 7.252766231342539 0 0 0
157 1 14.453851558970754 0.9892901893729485 4.750185142072002 0 0 0
113 2 11.141673304974105 1.9868244971060254 9.539005853772599 0 0 0
296 2 13.959641331518611 11.101134176569891 6.387791296259675 0 0 0
303 2 -2.5009091349121615 9.409228437005549 8.892387341457475 0 0 0
29 2 2.0638591294485633 1.9826196665235296 9.128524593617248 0 0 0
17 2 3.1785096079406476 0.42636363918472936 1.539591508754717 0 0 0
27 2 -1.7058568085139478 3.224157619164744 6.314336099610406 0 0 0
149 2 15.78832600597153 6.44224650650432 2.9015526595802146 0 0 0
248 2 7.803600309419716 11.045417959282853 1.6083750841172235 0 0 0
51 2 6.654809938905018 1.7933978940023019 9.353747574161002 0 0 0
101 2 12.720247339816611 0.629124610853556 1.5599162300566585 0 0 0
539 2 1.7041876649931331 6.328988413415153 0.4000606965917579 0 0 0
182 2 2.0991218651647 10.856659591937792 1.1780169954548423 0 0 0
519 2 -0.07222577246839382 3.1194047408480396 9.44220914217066 0 0 0
195 2 -1.6256040749276244 10.64652707921045 6.142283067779566 0 0 0
265 1 10.981171726613649 10.559336695481964 0.4244768167064501 0 0 0
332 2 17.050893404346976 10.757298971303374 1.7324288941251487 0 0 0
482 2 14.84785264693211 0.3660833660185753 7.638193405161677 0 1 0
47 2 2.919719703082264 0.8116525413908515 6.673509493926172 0 0 0
211 1 4.380253748712693 10.649529318595519 7.1383953130885915 0 0 0
146 2 15.20418057318173 7.164102185446084 7.54398463720522 0 0 0
92 2 8.586974656611707 5.595179818094671 1.0377449901533595 0 0 0
266 2 10.835760639195636 10.711619994459857 1.3949659495056004 0 0 0
25 1 -1.5774975375339855 2.345669458950902 5.8168109044388245 0 0 0
183 2 3.0306861867577815 10.040820607012016 0.24778080440801922 0 0 1
156 2 12.999643127601397 5.536668058754392 0.7583838093560049 0 0 0
158 2 14.356303776704282 0.24939091597310864 5.428555930329354 0 0 0
335 2 13.975080542508996 10.986376357928732 2.2504897582016814 0 0 0
97 1 11.249609429375663 3.098737881931458 0.4862515721603259 0 0 0
152 2 16.93061061808847 4.470127120548351 3.209407930174742 0 0 0
151 1 16.652302750525294 5.262265997002417 3.6589128600254197 0 0 0
517 1 -1.0670769384433885 3.0827133120004815 9.583806530110518 0 0 0
281 2 10.90710943451368 9.054897934865654 9.420313239283077 0 0 0
559 1 7.501237254496293 4.482000098498469 0.33366415988494946 0 0 1
834 2 13.41700189058009 8.484780577220173 9.511252186572543 0 0 0
623 2 10.897383842966887 6.506503298780283 0.7396660450774619 0 0 0
294 2 10.435242501922122 11.072630574507636 8.283370501611993 0 0 0
219 2 6.589355596636186 9.292336786565265 9.304122521138346 0 0 0
72 2 4.0303686255009925 5.369826922704362 0.6251775057403248 0 0 0
685 1 -1.293784620364372 10.469977366031793 9.626428320983994 0 0 0
302 2 14.712057415483274 9.471145605925384 7.911182095664193 0 0 0
34 1 -0.42981407636787516 6.578650377475185 9.573730150040227 0 0 0
255 2 10.297360140582212 10.927549256879432 3.9803694168714183 0 0 0
333 2 16.16399901018423 9.98417732855015 2.726824736716992 0 0 0
147 2 15.722779667505899 5.7506125670639765 7.203602124275594 0 0 0
326 2 14.998171690027466 7.398964761778716 5.655853824495219 0 0 0
26 2 15.769757176164388 1.996901574695043 5.596402134274914 0 0 0
128 2 14.041405810232206 3.7620345331027423 6.519913692956185 0 0 0
164 2 17.07349725662351 3.2609124763133326 1.4148322800091984 0 0 0
133 1 14.852126271934724 1.663897657064026 8.798303503315106 0 0 0
134 2 14.483591600257082 2.356154843566001 8.214111828134055 0 0 0
687 2 -0.3463282331611175 10.187418705640148 9.456668778700536 0 0 0
165 2 16.099819983118234 2.7305263846757417 2.5048093988062656 0 0 0
137 2 15.246569221153834 4.732216326868928 4.75470691746837 0 0 0
163 1 17.048678816860942 2.9751479931522544 2.3588063671068875 0 0 0
194 2 16.024980103742795 9.415256007904379 5.323716519902854 0 0 0
145 1 14.922725449675315 6.333171157445764 7.14270259643307 0 0 0
331 1 17.053027750992463 10.28890928777468 2.6010897816198995 0 0 0
21 2 0.21623236123727807 0.27335549759115385 2.1508258429636014 0 0 0
644 2 15.452234730886214 4.835638281414434 0.2548838348174982 0 0 0
560 2 6.578853380543103 4.774586685609112 0.4691739973945579 0 0 0
179 2 1.1284100804535806 10.861630729578996 5.468141013034996 0 0 0
664 1 12.546919820169657 0.7703288623271073 9.516802208092143 0 0 0
666 2 13.478055226845923 0.9957061912501279 9.359690604448232 0 0 0
538 1 2.640004559971317 6.661756922896061 0.31977890427774774 0 0 1
105 2 9.461337626061539 0.39280077511658495 1.8798648232812298 0 0 0
369 2 0.4805207445520625 0.14211411640826072 4.317142442914413 0 1 0
171 2 1.4533452850634514 11.095216638588697 3.222020990042216 0 0 0
246 2 7.617076743956493 8.47054374420136 0.45128377094487465 0 0 1
402 2 5.904273375611137 0.20944744643665142 3.462966219789075 0 0 0
13 1 1.9833166691786885 2.9445685162354294 0.2574967347068267 0 0 0
610 1 5.655633873317528 0.5016498903238503 16.690507470166054 0 0 0
805 1 11.644509792066698 8.922462277743417 18.350327112933023 0 0 0
686 2 -1.2872863276920887 10.92006012776076 10.520262310982936 0 0 0
520 1 -0.2104722592906705 1.0402879050001714 11.867121828069488 0 0 0
665 2 12.595141813026972 0.5113250380711908 10.508554644141453 0 0 0
618 2 6.468607035897708 1.542631134108297 17.83482317152309 0 0 0
831 2 10.587589541083869 8.517254621167044 14.43340889838361 0 0 0
596 2 5.310076617993527 5.639996973877129 10.761705249781963 0 0 0
512 2 14.362785612933507 5.846305733650656 10.213241376350842 0 0 0
832 1 12.516695549743366 8.170491453095543 9.727604149789144 0 0 0
576 2 0.6284217179821628 5.492676059077229 10.15558388055899 0 0 0
581 2 3.1029007837856377 0.42250031506246705 10.705029603586654 0 0 0
635 2 8.666572136727183 0.5421165090937136 15.559603750528808 0 0 0
780 2 4.971221113391906 8.437533314042378 16.586040827461606 0 0 0
597 2 6.524505652583584 5.471215154698063 11.716374996565952 0 0 0
766 1 6.732065815431624 10.588146177524491 14.68694755143085 0 0 0
603 2 8.885652886435057 2.633108589579593 9.988956329335537 0 0 0
717 2 0.3168716977608551 9.958903309053914 16.48805223229261 0 0 0
726 2 1.6357105227113016 11.004528516180722 13.483011586346821 0 0 0
802 1 8.888713549585676 8.81045637086905 14.852536527493811 0 0 0
702 2 -2.3404966928503534 8.987366091663016 17.816914883624897 0 0 0
56 2 3.18818058227297 4.570927981274443 10.118310687780848 0 0 0
799 1 10.31281179875712 10.539926548851158 16.581845122042065 0 0 0
806 2 11.42620301106001 9.418735266695123 17.504691116333618 0 0 0
800 2 10.72195608936821 10.988439824928177 15.816007842743339 0 0 0
35 2 -1.3998656135133072 6.565378564848764 9.794553887640001 0 0 0
555 2 3.4032148591304856 1.6490198778131309 18.727607228813515 0 0 0
770 2 7.683488794823339 10.879390265012198 10.816266380992962 0 0 0
804 2 8.005644464840705 9.217535969957877 14.740601863715584 0 0 0
505 1 -1.5663936670471625 4.418954389411098 11.92550549833555 0 0 0
506 2 -1.0116364211864033 5.042363665369387 12.525373937657946 0 0 0
507 2 -1.7483426403180753 3.727833704296889 12.657826426657401 0 0 0
508 1 -0.5823235475896837 6.27040936226372 13.655257117327425 0 0 0
509 2 0.2692844248895049 5.83567673218519 13.974595817259653 0 0 0
510 2 -0.20959083460375064 7.0479209622504975 13.247204800368683 0 0 0
511 1 -3.0346567277639993 6.172209938873837 10.592843270184822 0 0 0
617 2 7.715630136860559 1.9661712227780037 18.740289578544683 0 0 0
513 2 -2.6962021876210276 5.439960735535477 11.133717565191454 0 0 0
514 1 -1.983687538596918 3.2869189971441926 14.377185532998137 0 0 0
515 2 -1.9325495952311558 3.850984357221558 15.224750738341742 0 0 0
516 2 -2.775068257717611 2.8126732537230588 14.552917656238012 0 0 0
779 2 5.644225439684204 7.102194656627148 16.43421144395855 0 0 0
518 2 -1.2844586976047638 3.44494161451447 10.475184054963481 0 0 0
525 2 -3.153158558978565 0.30297479432355695 11.639151843528685 0 0 0
701 2 -1.0791449840847613 9.121048484835699 18.876071978457624 0 0 0
522 2 -1.1026553821446374 1.2770661051561505 12.009333920640495 0 0 0
639 2 -5.970579935249385 1.7629455835826149 18.68725938734523 0 0 0
524 2 -3.457645711393099 1.746028518741725 12.00125683921141 0 0 0
829 1 11.416346973458596 7.996443039181865 14.507442290396915 0 0 0
118 1 8.569600040454329 6.516956476860746 9.842898174407576 0 0 0
529 1 -4.7786997447876 2.492453405557986 15.20600442828494 0 0 0
530 2 12.6327439523343 2.034370949596982 14.94962665432483 0 0 0
531 2 -5.0412455897651345 3.236624705772283 15.697488182882594 0 0 0
532 1 -1.897989383956184 2.104129398439021 17.707886522172064 0 0 0
748 1 3.194080549059582 8.385323856032938 9.798118819948774 0 0 0
534 2 -2.4432829388008153 1.4432356294955375 17.251624941499134 0 0 0
535 1 -2.938544593461427 6.957406067915682 14.428530144125576 0 0 0
536 2 -1.9643352114623167 6.751228893568582 14.175549322832556 0 0 0
537 2 -3.1034198207478876 7.684560120798604 13.744846374711415 0 0 0
785 2 7.730334166382073 9.324913584066625 18.754734741274568 0 0 0
637 1 11.57410377613512 1.27448489292411 18.266185608483656 0 0 0
540 2 -3.698787547889949 6.953670671796057 18.327836106685684 0 0 0
541 1 -4.86493667275573 4.687048106923302 17.017966261510256 0 0 0
542 2 -3.879488455139518 4.707743207378452 16.828504642681363 0 0 0
543 2 -4.912467626264953 4.19896148527741 17.871596155978047 0 0 0
544 1 -2.0704051058316706 4.618461962571554 16.602579283940877 0 0 0
545 2 -1.54012982893432 5.441048552091539 16.79843000922123 0 0 0
546 2 -1.8407177702130286 3.983021863260135 17.297214934623852 0 0 0
547 1 1.3308958039309515 3.077258713465457 17.0397254289804 0 0 0
548 2 1.4375297357979213 3.6536635716841257 16.201167733149187 0 0 0
549 2 0.527094572168898 2.553580677856173 16.89700878711541 0 0 0
550 1 -0.012517664032363984 1.4392538856290902 15.45853348291554 0 0 0
782 2 3.4364897822338736 9.261347185246066 14.990216835444846 0 0 0
552 2 -0.7343881209312317 1.8700453436829623 14.931206804256863 0 0 0
553 1 2.6990560609816447 1.2331605165598833 18.181160434367428 0 0 0
554 2 2.402217772792154 2.010550389334645 17.637423751897305 0 0 0
801 2 9.582221768352639 10.073671666153711 16.07940722436068 0 0 0
556 1 1.5366131331299457 4.4826772804937285 14.713124056614543 0 0 0
557 2 2.4639733327156144 4.791408968298649 14.727270317499555 0 0 0
558 2 1.543447671460479 3.9374623544028595 13.918387725024909 0 0 0
561 2 1.0598324089939035 4.011306735227031 18.339984533172 0 0 0
562 1 -0.4774107595347923 6.641496887858061 16.842251194372764 0 0 0
563 2 0.47628878702785127 6.472477851860341 16.726405561879336 0 0 0
564 2 -0.446650612002491 7.093813035270462 17.71710165811973 0 0 0
565 1 2.423307119452814 6.5421877595138405 16.80971818595399 0 0 0
566 2 2.558643629491043 7.069753164069099 17.62005116175271 0 0 0
567 2 3.0522482667937565 5.798750447865471 16.967246518070688 0 0 0
568 1 2.5006658175772305 6.7088554900937485 12.12841279065502 0 0 0
569 2 3.091381297777914 6.094174274788101 12.600110895135542 0 0 0
570 2 2.2627642511517996 7.356389450404922 12.856200685521374 0 0 0
571 1 4.281617412728885 5.092597331199959 13.615814333322582 0 0 0
572 2 4.559836531480567 4.332860275800471 13.109324120953062 0 0 0
573 2 4.991156445688406 5.615322439371402 14.050423773218174 0 0 0
574 1 1.3265363402268455 4.958856529382107 10.534366249132367 0 0 0
575 2 1.7847340319259493 5.640852429053533 11.063253352038194 0 0 0
752 2 4.892318705086156 10.447954671227965 11.030804960203701 0 0 0
119 2 7.625632763537393 6.344329049094933 10.212824314291083 0 0 0
769 1 7.855646980596061 10.516605657021831 9.894390383670958 0 0 0
579 2 1.4494757820157553 1.1166106225778916 14.499983976508782 0 0 0
682 1 -2.3662593783073853 10.517984214137385 14.138371350464881 0 0 0
583 1 4.301939504073493 2.691366775916585 12.180075196495064 0 0 0
584 2 4.136999943877535 3.171685583792284 11.312552712852172 0 0 0
585 2 3.437196918420888 2.362037776785291 12.441115233757406 0 0 0
586 1 1.6168184253131295 2.9771621190829345 12.35121029186593 0 0 0
587 2 1.2984276228133567 3.6619476643889763 11.750515979043609 0 0 0
588 2 0.9179734389232558 2.281100599043497 12.150339892420298 0 0 0
589 1 7.493959976221421 4.023065597127491 12.463314591123163 0 0 0
590 2 8.15456513376425 4.66090302745313 12.845613933172986 0 0 0
591 2 7.3543627233955675 3.4537702073478904 13.222283254544244 0 0 0
592 1 8.593684840315017 6.224822244427073 13.985044556238673 0 0 0
593 2 9.458426800166455 5.856523196794669 14.267846176985882 0 0 0
594 2 8.78147760313385 7.150962190806702 13.633563902940097 0 0 0
595 1 6.136870377929131 6.085437453263677 11.068678272093052 0 0 0
76 1 0.11437796104723782 0.2871934393617829 19.039202670660043 0 0 -1
767 2 6.777459866456936 11.06922701724269 15.555361614087662 0 0 0
598 1 6.863838728381473 2.8622493733172214 14.845482047813686 0 0 0
599 2 7.029770146524598 3.5101351668739933 15.543054349197632 0 0 0
600 2 5.954709356034581 2.6803331108799084 15.022082609661808 0 0 0
328 1 9.24425875333275 8.307482034336202 19.10047742687761 0 0 -1
602 2 7.720428572699449 3.112251025612987 10.867024342821432 0 0 0
604 1 9.126146640230974 0.8190957529376371 11.860476815832996 0 0 0
783 2 3.910677068366531 10.473693655182009 15.86104981818577 0 0 0
606 2 8.322459990073929 1.0736607993552154 12.326291164146264 0 0 0
526 1 -3.5858604116577806 0.4541548864779362 16.483863780598572 0 0 0
608 2 5.503553640786665 1.3889213046593503 12.151575018652554 0 0 0
624 2 5.313659309379804 7.270404384807777 18.66621152049508 0 0 0
830 2 11.384801782045827 7.395701322238876 15.302944650030362 0 0 0
612 2 5.008795828860562 1.1023994676279383 16.20071195426981 0 0 0
613 1 4.098580215326644 2.386145164725073 15.405017248141966 0 0 0
614 2 3.367644822657335 1.7647738309320598 15.16334112849112 0 0 0
615 2 3.7885022137136763 2.8710932546098067 16.175400501351866 0 0 0
616 1 6.848086026312093 2.275333058080563 18.342928061887335 0 0 0
803 2 8.799616174309964 8.120224558024898 15.556951268650035 0 0 0
661 1 11.434429468044405 0.8438231481993523 14.273095027464784 0 0 0
619 1 6.085614686875548 6.736850664774417 14.690052352139425 0 0 0
620 2 6.972302956192752 6.348612228943983 14.567894140841728 0 0 0
621 2 6.078010433448524 7.545636728554276 14.167651030696334 0 0 0
660 2 9.8050968546595 5.676520162606986 10.575654045953033 0 0 0
625 1 4.138807954777573 4.683342520279585 17.317010778788514 0 0 0
626 2 5.010697139047324 4.902604082975464 17.018020628173456 0 0 0
627 2 4.218143663304743 4.180334789096256 18.211112612075915 0 0 0
628 1 6.972562209336728 4.677804902248071 16.764665302555382 0 0 0
629 2 7.575320716780268 5.442276059794871 16.954974027823415 0 0 0
630 2 6.99790118095072 4.028066202682968 17.48550714514384 0 0 0
631 1 10.363357109869348 3.079468702750873 16.721493214285957 0 0 0
632 2 10.690231180488725 3.7066388327956226 16.01065817811282 0 0 0
633 2 9.734736111591271 2.407977348331472 16.25982740649414 0 0 0
634 1 8.905816390197582 1.3608339049176943 15.05202746024237 0 0 0
523 1 -2.909432737469614 0.9730596940805758 12.256644770815212 0 0 0
636 2 8.013915208684551 1.7640016080868424 14.922326367057492 0 0 0
521 2 -0.21255047993765705 0.4898930856937568 11.053774704818688 0 0 0
638 2 11.276389749158966 1.9419537778170026 17.554897567376067 0 0 0
683 2 -2.221587311502116 10.972358567889477 15.028946003706846 0 0 0
640 1 10.900877665897426 4.634917407126643 14.574824470322016 0 0 0
641 2 11.842947131431266 4.866151823042254 14.537562975710077 0 0 0
642 2 10.715952690698927 3.8771728474200127 13.97489187103224 0 0 0
645 2 9.860982227891864 4.214761770574562 18.097137728084522 0 0 0
646 1 8.534754667917994 6.73816229958874 17.060258182593934 0 0 0
647 2 9.391478767111872 6.325834919573322 16.81863888089427 0 0 0
648 2 8.818104110274673 7.1374222994392085 17.92748231485468 0 0 0
649 1 11.625506275616562 6.592404891690038 16.67044968428132 0 0 0
650 2 11.75619753141912 7.205009364396109 17.427404988193253 0 0 0
651 2 12.312767259209222 5.874004952196148 16.805219774444414 0 0 0
652 1 11.910286856409613 7.023829951138586 12.095466384680421 0 0 0
653 2 12.56216788734819 6.4411900913330715 12.579868599194588 0 0 0
654 2 11.698873480891102 7.632658624675016 12.922726699970939 0 0 0
655 1 13.378308612836635 5.152682069193493 13.716207253612824 0 0 0
656 2 13.644844774474276 4.343706679402471 13.18886538796013 0 0 0
657 2 -4.073684974904694 5.59443391389171 14.070875488889328 0 0 0
658 1 10.49127845849303 5.191140644194299 11.027997976361181 0 0 0
659 2 11.061894965025852 5.829032670736954 11.509585171919475 0 0 0
528 2 -4.158957650505984 1.2050885154030386 16.149325034776126 0 0 0
714 2 -1.6177807622824563 11.074311591586545 17.05357345575836 0 0 0
838 1 10.8613614981392 10.561591396655906 12.09530626113739 0 0 0
663 2 10.54321983484688 1.2213403183261053 14.229859786020285 0 0 0
835 1 13.58923106537744 10.686919946632399 11.839066686136713 0 0 0
667 1 13.627402466510771 3.0036339845313482 11.871176547408659 0 0 0
668 2 13.574941326910272 3.394257165256329 10.996665983559241 0 0 0
669 2 12.695776076927723 2.783517778083054 12.073196798878447 0 0 0
670 1 10.673137246287341 2.909669625984842 12.394750973279287 0 0 0
671 2 10.559113905820691 3.678976944456027 11.802115087177933 0 0 0
672 2 10.148839840131076 2.172426764568085 12.046981631459419 0 0 0
771 2 8.778347047030513 10.245293915011358 9.92823499581737 0 0 0
837 2 12.618809131546566 10.498328741077447 11.759108953405587 0 0 0
684 2 -3.136929369484213 10.006969257163508 14.204839525780175 0 0 0
688 1 -0.13680247149640776 8.201719118558922 11.929095376247234 0 0 0