LAMMPS data file via write_data, version 15 Apr 2020, timestep = 3300000

576 atoms
2 atom types

5.0957575658033960e-01 1.7410425243404397e+01 xlo xhi
3.0457475658046462e-01 1.7205424243404522e+01 ylo yhi
6.5457575658039957e-01 1.7555425243404954e+01 zlo zhi

Masses

1 16
2 2

Atoms # atomic

562 1 3.5636535897164725e+00 2.7433561197805170e+00 4.6133452688446788e+00 -3 -2 4
293 2 2.0758668330548451e+00 3.5741024636579284e+00 1.6223228345321010e+00 0 6 1
564 2 3.0374026049422165e+00 3.4895798844467145e+00 4.3971180862256620e+00 -3 -2 4
132 2 4.2446363357266232e+00 3.0529855946380886e+00 2.6254840910434116e+00 2 1 -5
292 1 1.2141424631288176e+00 4.0192503222004650e+00 1.5148473312594084e+00 0 6 1
55 1 2.5576588464181071e+00 7.0173947185624597e-01 2.4863233503375293e+00 1 0 1
164 2 4.3981875157033787e+00 9.7720931848660830e-01 3.7083894222758071e+00 4 -1 -3
104 2 6.7917778898683334e-01 2.4108393286155261e+00 4.5695101499981838e+00 1 0 5
131 2 3.9062362691477306e+00 1.9042259643889141e+00 1.6273001101720710e+00 2 1 -5
130 1 4.2785975520795434e+00 2.8216185431186203e+00 1.7061456686415732e+00 2 1 -5
57 2 2.0112002620393219e+00 6.1364794217437657e-01 1.6876801893490840e+00 1 0 1
437 2 5.2676219176363226e+00 3.0916415194889257e+00 4.6932466059254931e+00 3 0 0
436 1 6.0699255451226763e+00 3.6037904964365595e+00 4.4388362842773867e+00 3 0 0
401 2 8.5886422190824092e+00 5.9044086269345564e-01 4.8583655103112342e+00 -3 2 0
543 2 8.1359470692188598e+00 1.8875954570180575e+00 2.5492496827057671e+00 -1 -1 4
541 1 7.1746203100501402e+00 1.9237444328518543e+00 2.2924907840612780e+00 -1 -1 4
411 2 6.4207373457380736e+00 6.1875713133670651e-01 1.5086087611046799e+00 -3 1 1
542 2 6.6695165299205197e+00 2.4141925824274235e+00 2.9720175224553094e+00 -1 -1 4
402 2 7.1427912046022906e+00 6.7812212738406830e-01 4.3882650197443303e+00 -3 2 0
163 1 5.1131384424108886e+00 6.6065063226907961e-01 4.2588959000761948e+00 4 -1 -3
45 2 1.2436730304757457e+01 4.9190479666160747e-01 1.1905282151964984e+00 3 -5 5
450 2 1.0061182045259326e+01 2.0350418973503985e+00 3.8438016073411481e+00 2 -1 -3
448 1 1.0190582695398675e+01 2.1766064548161363e+00 2.9114137548675925e+00 2 -1 -3
449 2 1.1028121810722951e+01 1.7190687397035604e+00 2.6092804855616922e+00 2 -1 -3
336 2 9.6237652380260332e+00 3.8368823407483168e+00 1.9179703998762818e+00 -1 1 0
504 2 1.2692078774758249e+01 3.4019268561421341e+00 2.5997456417814284e+00 0 2 3
457 1 1.2131651158699798e+01 3.6275349912408030e+00 4.8629388639839712e+00 5 3 -4
368 2 1.1583986122046207e+01 4.1806799280664259e-01 4.7867880268178489e+00 -2 -3 -1
43 1 1.2029924408977406e+01 4.3532571043110496e-01 2.0455528117598090e+00 3 -5 5
105 2 1.7365423210640952e+01 3.3848684194391323e+00 3.2990131450362217e+00 0 0 5
502 1 1.3602601992324207e+01 3.1150008554179403e+00 2.3509863406943357e+00 0 2 3
503 2 1.3811891700512399e+01 2.4181078005777494e+00 3.0336154404162579e+00 0 2 3
103 1 1.7020736130704499e+01 3.1676910662334183e+00 4.1611069581559725e+00 0 0 5
222 2 1.5771367653025436e+01 2.0727211050623469e+00 4.1157659094267443e+00 -1 2 6
220 1 1.4942112485473588e+01 1.5497531782213343e+00 3.9295232990273496e+00 -1 2 6
2 2 1.6087551225042372e+01 4.1742788666205204e+00 1.0371369949023252e+00 1 2 1
3 2 1.4853435477587581e+01 4.3050396491165746e+00 2.0322678335122397e+00 1 2 1
221 2 1.4410731189709331e+01 1.4516373298607299e+00 4.7233701123144147e+00 -1 2 6
294 2 1.2959161561425665e+00 4.8977415365760431e+00 1.9345821324948567e+00 0 6 1
576 2 1.8876456553541046e+00 8.4642381252933969e+00 4.0134268114349760e+00 -1 1 -2
117 2 3.5896855141103616e+00 5.7458934090442497e+00 2.2614260439330161e+00 3 -5 -1
175 1 2.6488875579228721e+00 5.4149160599144306e+00 4.3214924431717954e+00 -2 -1 1
177 2 1.8279280522254264e+00 5.8919704159819863e+00 4.2043933627546126e+00 -2 -1 1
115 1 3.6234471643870800e+00 6.0258440324859164e+00 1.3632776135790021e+00 3 -5 -1
116 2 4.0873089463161270e+00 5.3379119194038545e+00 8.9671732004753768e-01 3 -5 -1
575 2 3.4060930535257943e+00 8.3920111602716698e+00 4.2003082615146976e+00 -1 1 -2
345 2 6.2124918793185984e+00 5.1342752063586952e+00 3.8817002767010966e+00 4 0 1
126 2 5.7461247247993086e+00 7.6949091773189648e+00 1.0244337809348405e+00 4 -3 3
516 2 5.8214854865278509e+00 7.5289177239496059e+00 4.3389998404882997e+00 1 0 -3
343 1 6.4454995772839263e+00 6.1202030404574046e+00 3.6118579620200109e+00 4 0 1
344 2 7.4099738325751447e+00 6.2303608862646573e+00 3.8110301514639646e+00 4 0 1
514 1 5.2356568066371292e+00 8.1538988141300486e+00 4.7959802545712069e+00 1 0 -3
73 1 8.5598853007422786e+00 8.5943301018499838e+00 1.5440298511977020e+00 0 -1 -1
559 1 7.2740824311679848e+00 6.2153475935578220e+00 1.0285471078846384e+00 1 -2 -2
561 2 6.8438862256894932e+00 6.1245170969434559e+00 1.8936081720703659e+00 1 -2 -2
75 2 8.0783919048376145e+00 7.8790567431538090e+00 1.1924806370471608e+00 0 -1 -1
560 2 8.1028518117952331e+00 5.6445799001084387e+00 1.1460496805310345e+00 1 -2 -2
334 1 9.5102951580260431e+00 4.7977778698103286e+00 1.7309898530711652e+00 -1 1 0
335 2 1.0040769123594666e+01 5.1522510561702761e+00 9.8646961311068904e-01 -1 1 0
423 2 9.6712081656012039e+00 7.6393480797972133e+00 4.8081910204280467e+00 -2 2 -2
74 2 9.4696234568994004e+00 8.2614551296770777e+00 1.6695944490897119e+00 0 -1 -1
290 2 9.4232128862969446e+00 5.6161022884340621e+00 3.4525727260048562e+00 1 -4 -1
289 1 9.1503956966749040e+00 6.1710292882071185e+00 4.2261419504405309e+00 1 -4 -1
157 1 1.2189680584155363e+01 7.5156254806661291e+00 4.2448965179762137e+00 -2 6 -4
106 1 1.1074788515086317e+01 7.9272913202723005e+00 1.7406147811698685e+00 -3 0 6
159 2 1.2951398235932221e+01 6.9513711462032184e+00 4.1093104308040687e+00 -2 6 -4
108 2 1.1613979452412799e+01 8.4498625235578153e+00 1.1437981198882148e+00 -3 0 6
107 2 1.1458526153980591e+01 7.9855308667302500e+00 2.6518466463147865e+00 -3 0 6
158 2 1.2559598739186074e+01 8.2424581193571083e+00 4.7811753710011144e+00 -2 6 -4
24 2 1.7251572168872833e+01 6.9712558703977763e+00 2.0929202204478621e+00 1 -2 -2
22 1 1.7082143634032654e+01 6.4396007174715262e+00 2.8884289876213960e+00 1 -2 -2
1 1 1.5482766559362130e+01 4.8025792241782614e+00 1.5135329626876730e+00 1 2 1
530 2 1.3944693986854261e+01 4.7392528863819550e+00 4.1539846747074280e+00 2 -1 4
381 2 1.5431468814299746e+01 7.5738972141022201e+00 3.7946462568630746e+00 3 -5 0
23 2 1.6402321239125563e+01 5.8741106728583414e+00 2.5107729726349444e+00 1 -2 -2
529 1 1.4274764261796571e+01 5.6549555621649912e+00 4.1593953886642847e+00 2 -1 4
379 1 1.5171651609719000e+01 8.3138387424596285e+00 4.3283883707203801e+00 3 -5 0
380 2 1.5969795202761583e+01 8.6587802344178044e+00 4.8004358873728243e+00 3 -5 0
563 2 2.8961419628888394e+00 2.0886998717244589e+00 4.9266398030745098e+00 -3 -2 4
224 2 4.5409145701680593e+00 3.3633181635040672e+00 9.0746238244787332e+00 1 3 -2
376 1 1.3536381403550535e+00 1.2631591354674612e+00 5.5246695283800262e+00 -4 0 2
328 1 3.5641913747774563e+00 3.4241050837138243e+00 7.5288983964832994e+00 4 3 -1
329 2 3.7467045588562535e+00 2.5198412013161025e+00 7.1668440188918998e+00 4 3 -1
330 2 2.6595402646995354e+00 3.3590349584528894e+00 7.8966187579901801e+00 4 3 -1
378 2 6.7188762546225722e-01 1.4124147115891947e+00 6.2017982544951185e+00 -4 0 2
64 1 4.2659772977391697e+00 9.1255151438600135e-01 6.8640904868991104e+00 0 -1 -2
65 2 4.5507519470066233e+00 7.3644397180746823e-01 5.9426658419531453e+00 0 -1 -2
382 1 1.1552348898929903e+00 4.1032038037582668e+00 8.6224183460758894e+00 2 -1 -2
383 2 7.3199157763358547e-01 4.3622592493509016e+00 7.8185563762974652e+00 2 -1 -2
377 2 1.1878525852360686e+00 3.4096967135944922e-01 5.2460974288889552e+00 -4 0 2
320 2 6.7152325270296780e+00 1.2690334893704791e+00 8.6568908257843038e+00 -4 2 -2
438 2 6.7544274473127599e+00 3.4866212889032715e+00 5.1325298279455129e+00 3 0 0
319 1 6.8126973155561199e+00 1.1053571902765491e+00 7.7018760173946736e+00 -4 2 -2
63 2 7.6072317057833887e+00 2.4652971259622412e+00 6.9179568209006002e+00 3 -1 0
61 1 7.7831737505731597e+00 3.1764414110945225e+00 6.2717504369319812e+00 3 -1 0
321 2 5.8866071981941595e+00 1.0707736276206843e+00 7.3433040515989436e+00 -4 2 -2
62 2 7.8755652335161024e+00 4.0255091437776196e+00 6.7097816169256825e+00 3 -1 0
228 2 9.3849950636596446e+00 2.4938143834871522e+00 5.7659194100426543e+00 0 2 0
505 1 1.0667271897444904e+01 3.5078417840646900e+00 7.9207328939733843e+00 -2 -1 4
226 1 9.7810726965216617e+00 1.6293817177743515e+00 5.5489623700950350e+00 0 2 0
227 2 1.0154445751221081e+01 1.3903233173564236e+00 6.3707050746415046e+00 0 2 0
459 2 1.1718263499604467e+01 2.8770831447774476e+00 5.2463897241735511e+00 5 3 -4
247 1 1.1311279707053821e+01 6.0047654769371550e-01 7.4511264358520322e+00 0 4 2
464 2 1.2177697991951961e+01 3.6274182789643250e+00 7.9573950963021280e+00 -1 1 3
506 2 1.0364574853214741e+01 4.3852011822427510e+00 8.1698170693327210e+00 -2 -1 4
507 2 1.0138954729879186e+01 2.8680164539421527e+00 8.4605728775137052e+00 -2 -1 4
458 2 1.2037831736102902e+01 4.2989776151696741e+00 5.5496600043697484e+00 5 3 -4
84 2 1.7002706335262111e+01 4.4076802349020134e+00 5.5705809171159455e+00 -2 -2 2
207 2 1.7221523073980585e+01 2.4655125482502807e+00 8.2626611111366106e+00 -3 3 0
206 2 1.7285040707132115e+01 9.4898939969949037e-01 8.4287991249737750e+00 -3 3 0
465 2 1.3582029226651747e+01 3.7981824031717686e+00 8.6780804142974279e+00 -1 1 3
463 1 1.3197635684717120e+01 3.5130641504444786e+00 7.8482327013482758e+00 -1 1 3
205 1 1.6975348232108015e+01 1.6392713360903635e+00 7.7644945479663345e+00 -3 3 0
150 2 1.3645190302446666e+01 1.9190037614966164e+00 6.9871936709342446e+00 -2 -4 -1
148 1 1.4250898560323437e+01 1.2421585692365742e+00 6.6107898723284766e+00 -2 -4 -1
149 2 1.5106401026737929e+01 1.6298142015818393e+00 6.7927909272781761e+00 -2 -4 -1
176 2 3.0619405907933603e+00 5.7590041483526120e+00 5.1475671751410568e+00 -2 -1 1
350 2 2.5764129422155659e+00 7.4948805105171603e+00 7.2426515795476512e+00 1 -5 -1
255 2 3.9676401403605706e+00 4.8742735376359452e+00 7.1298804323656020e+00 -5 0 -2
349 1 1.9827648943075338e+00 7.5419295651857245e+00 6.4154051335757520e+00 1 -5 -1
286 1 3.7400256392126621e+00 7.5570887584164259e+00 8.3358946615958338e+00 4 -1 -1
287 2 4.1737513225288705e+00 6.8450028731474903e+00 7.7948429882150378e+00 4 -1 -1
351 2 1.5956069198315159e+00 6.6540841032902884e+00 6.2801628944555743e+00 1 -5 -1
253 1 4.3377287400798288e+00 5.6065833608926701e+00 6.6266698750765149e+00 -5 0 -2
288 2 4.3734223722823744e+00 8.3455999357210047e+00 8.2882421161244562e+00 4 -1 -1
32 2 8.9388299891642173e+00 8.4820549910203464e+00 6.5955830030976728e+00 -7 6 5
33 2 8.7962631580654485e+00 8.2966016855482128e+00 8.1178714323009302e+00 -7 6 5
254 2 5.2951798501197080e+00 5.4292458385064952e+00 6.6173377513868843e+00 -5 0 -2
156 2 7.2002839638273777e+00 5.6573171689001178e+00 7.9544083858609973e+00 -3 -1 1
154 1 7.5664726669840414e+00 5.6764345690817519e+00 7.0664891714651468e+00 -3 -1 1
31 1 8.3215742969634547e+00 8.2664785814255985e+00 7.2392482593871801e+00 -7 6 5
155 2 8.0577810843013893e+00 6.4652716532055496e+00 6.9559685470004817e+00 -3 -1 1
515 2 5.0805252262025071e+00 7.6260341965229816e+00 5.5765813820227468e+00 1 0 -3
291 2 9.5017284855541568e+00 5.7083961058663490e+00 5.0674400290095232e+00 1 -4 -1
213 2 1.1078801560134403e+01 6.0838388260226894e+00 7.1949962906441245e+00 1 -2 0
15 2 1.3129685560591033e+01 7.7244037098106322e+00 8.5354446727309270e+00 -5 -2 3
211 1 1.1058134804215932e+01 5.7967070824127918e+00 6.2885260988705411e+00 1 -2 0
212 2 1.1560697956758366e+01 6.4646617111199305e+00 5.7457510166945296e+00 1 -2 0
421 1 9.7052612756668957e+00 8.6401499148164600e+00 4.9826452175297522e+00 -2 2 -2
82 1 1.7156815975768584e+01 5.1414663224159485e+00 6.1411536716984845e+00 -2 -2 2
13 1 1.3361164960116433e+01 7.9722896663921796e+00 7.5689435225379054e+00 -5 -2 3
531 2 1.4520126787858374e+01 5.9365483855308447e+00 5.0887172113847265e+00 2 -1 4
360 2 1.4117461189517071e+01 6.4567145356313516e+00 6.9673032162765862e+00 -1 3 3
359 2 1.4055103387515622e+01 4.9859804423676177e+00 7.3147303702821906e+00 -1 3 3
358 1 1.4590844707784578e+01 5.6403175888549848e+00 6.8581187054485095e+00 -1 3 3
83 2 1.6274192362977736e+01 5.4578803929019983e+00 6.4368792377245976e+00 -2 -2 2
179 2 1.9026769035185627e+00 1.1228721669741986e+00 1.2663895857411573e+01 -2 3 2
178 1 1.9329846416337615e+00 3.4829244280879490e-01 1.2079902156917599e+01 -2 3 2
342 2 3.2982625602602367e+00 3.8596172032209815e+00 1.1195923105783443e+01 2 0 0
341 2 2.2660399201268726e+00 3.8988997371824081e+00 1.2370464502387101e+01 2 0 0
340 1 2.8916329953151565e+00 4.4420493942002359e+00 1.1889895973224370e+01 2 0 0
404 2 8.8270983086115085e-01 4.2567950833496954e-01 1.0621866940862777e+01 1 5 0
223 1 4.9094761542757359e+00 3.4653000755607941e+00 9.9535195488292150e+00 1 3 -2
225 2 5.3536942988623499e+00 2.5908093539147328e+00 1.0125566377879499e+01 1 3 -2
29 2 7.1330604300299703e+00 1.7194032253559759e+00 1.0653154991374496e+01 -1 0 1
474 2 8.0780460098953988e+00 2.2135462065497311e+00 1.2314703961042280e+01 0 -4 -4
28 1 6.3404994769935135e+00 1.2572578284498244e+00 1.0299114797437610e+01 -1 0 1
472 1 8.3372593657173919e+00 2.5514223626754799e+00 1.1458616550587120e+01 0 -4 -4
354 2 8.9305916069088074e+00 4.2846036423399578e+00 1.2199182367423015e+01 -1 2 4
30 2 5.9755729590145510e+00 6.2936152667130052e-01 1.0977944461918648e+01 -1 0 1
473 2 9.2807608320261981e+00 2.3642148092797100e+00 1.1312206820651488e+01 0 -4 -4
16 1 1.0887269187540976e+01 2.1912642889651464e+00 1.0584260546743812e+01 2 0 -5
17 2 1.1182628120332996e+01 1.2783338416227052e+00 1.0585031898615684e+01 2 0 -5
18 2 1.1456547760627295e+01 2.7056561859301227e+00 1.1217283464164369e+01 2 0 -5
373 1 1.4576808826194901e+01 1.0783319540371441e+00 1.0663249257503727e+01 1 1 3
89 2 1.4575555114719165e+01 2.9384446149890575e+00 1.0552646372369573e+01 -4 -1 1
88 1 1.4298175972590577e+01 3.8996628124156554e+00 1.0461530695948298e+01 -4 -1 1
90 2 1.5158501891427196e+01 4.3511535132799350e+00 1.0627646780342477e+01 -4 -1 1
374 2 1.4348671781516737e+01 4.3379906905871202e-01 9.9674423856327401e+00 1 1 3
375 2 1.5560449544778475e+01 1.0087947642204569e+00 1.0683887076008512e+01 1 1 3
182 2 1.3615362113674921e+01 3.4418448533155521e-01 1.1917134935624167e+01 -6 -4 1
384 2 6.4698587390983331e-01 4.6302597967298080e+00 9.2409672041499853e+00 2 -1 -2
53 2 2.9405946098409492e+00 6.1540585060815305e+00 1.1139484464954672e+01 2 -1 4
52 1 3.1608264754390949e+00 7.0490242669849330e+00 1.1005922990452826e+01 2 -1 4
54 2 3.4738245597593305e+00 7.2301833899311845e+00 1.0091233321126992e+01 2 -1 4
276 2 2.2086515142071663e+00 8.2873943375612882e+00 1.1584131589655513e+01 -3 -2 -3
533 2 6.2418105840721392e+00 4.6142764162096794e+00 9.6075922625183257e+00 2 4 5
186 2 4.8359020600987241e+00 5.2968304872718441e+00 1.2323711148842314e+01 1 2 0
184 1 5.7126803840728293e+00 5.5434540417119065e+00 1.2671469385972790e+01 1 2 0
534 2 6.2328633016262431e+00 6.1528366917354438e+00 1.0021573934645897e+01 2 4 5
532 1 6.6389510514974912e+00 5.4817972586359165e+00 9.4815157191230011e+00 2 4 5
59 2 6.7668269340620339e+00 8.2361084115576375e+00 1.1234868855093479e+01 -1 1 0
60 2 5.6358592029202486e+00 7.1733733589210829e+00 1.1610882135988028e+01 -1 1 0
58 1 5.9295373328551557e+00 7.8065236353708229e+00 1.0924220868700264e+01 -1 1 0
281 2 8.7658777315287466e+00 8.1177811145284178e+00 1.2984829747564575e+01 0 0 -3
170 2 8.8498690723703888e+00 5.3617902926380481e+00 9.7494555352981891e+00 -3 3 -4
282 2 9.0954846703600136e+00 6.6425098588308273e+00 1.3154713789966637e+01 0 0 -3
498 2 1.2732071625884009e+01 4.5767139615189114e+00 1.1163334628220769e+01 -2 1 -1
140 2 1.0209828087457709e+01 7.5389688738763745e+00 9.5978166672808563e+00 -2 0 -1
101 2 1.2683338804857771e+01 6.6386664764968355e+00 1.0648852817634671e+01 2 1 4
497 2 1.1554043164382788e+01 5.0582822284508593e+00 1.2158596841802673e+01 -2 1 -1
496 1 1.1920751350685171e+01 5.1118523554456248e+00 1.1237306454974309e+01 -2 1 -1
169 1 9.7690806463280886e+00 5.6762128632025712e+00 9.5184170909964028e+00 -3 3 -4
102 2 1.2666162258747599e+01 8.1605532520347417e+00 1.0755838833759807e+01 2 1 4
171 2 1.0312020293267560e+01 5.3439435972689617e+00 1.0309806838005988e+01 -3 3 -4
239 2 1.1590460728140064e+01 7.5800831900764356e+00 1.2515533983854377e+01 -1 -3 1
100 1 1.3063068356627667e+01 7.4466843974753836e+00 1.0254506267311983e+01 2 1 4
238 1 1.1269394198233989e+01 8.2584859206746586e+00 1.1902150491500612e+01 -1 -3 1
352 1 9.3522841481985957e+00 4.9641601825713790e+00 1.2754253598654522e+01 -1 2 4
139 1 9.9425548981533787e+00 8.4664957796586862e+00 9.3930561274116950e+00 -2 0 -1
233 2 9.2446419386201537e+00 8.7321204200480640e+00 1.0968342806684522e+01 0 1 3
572 2 1.4827590651881801e+01 7.7153193456573934e+00 1.0610943805345512e+01 -4 -1 -1
297 2 1.6756766545749276e+01 4.9846238500715243e+00 1.1730035787720221e+01 0 -3 1
295 1 1.6768050457654606e+01 5.3127714421470156e+00 1.0797700512853821e+01 0 -3 1
296 2 1.6623219020678128e+01 6.2731590709132616e+00 1.0849409948465695e+01 0 -3 1
571 1 1.5679119494930545e+01 7.8124256912061227e+00 1.1084452970110645e+01 -4 -1 -1
167 2 1.5454998830759973e+01 7.5760414023884808e+00 1.2813469102055659e+01 -5 3 -2
573 2 1.6182267163315394e+01 8.5684375891795259e+00 1.0759676345890703e+01 -4 -1 -1
214 1 2.1813181682126750e+00 2.4769554350466874e+00 1.3630773210629574e+01 1 -5 1
216 2 2.0754852738907132e+00 2.3562103778257635e+00 1.4589328069193030e+01 1 -5 1
215 2 3.0474900293126801e+00 2.8124124384523150e+00 1.3625019376706133e+01 1 -5 1
478 1 1.5880862382475034e+00 9.5117747272869313e-01 1.6630153821385228e+01 -1 0 -3
480 2 2.4861094405856616e+00 7.3142393439308884e-01 1.6426924735098268e+01 -1 0 -3
501 2 4.6265503363258338e+00 1.7928038486556679e+00 1.5611307145032107e+01 0 -2 0
499 1 4.3987545593156714e+00 9.3040382616844153e-01 1.5930095818055648e+01 0 -2 0
265 1 7.0351256025383595e+00 1.3819132194766184e+00 1.3734403042175032e+01 -4 0 0
266 2 7.6388266390517412e+00 1.6757922045020346e+00 1.4456704560477817e+01 -4 0 0
19 1 4.7625953348827972e+00 3.3014315893131148e+00 1.4239458560268693e+01 -1 2 5
500 2 5.1008271203750981e+00 7.7604903463980157e-01 1.6619194746556744e+01 0 -2 0
20 2 5.2661158878729317e+00 3.6768348332815499e+00 1.3533589294636316e+01 -1 2 5
21 2 5.0018989495415926e+00 3.8300436633765953e+00 1.5002982166834077e+01 -1 2 5
119 2 7.8096346193197066e+00 2.7746080911471838e+00 1.6476538547172026e+01 -1 0 -1
118 1 8.2692510621121915e+00 2.1692127185897938e+00 1.5959158097098511e+01 -1 0 -1
267 2 6.1531260809291819e+00 1.7621189012743819e+00 1.3825081717723265e+01 -4 0 0
187 1 5.6460185146979978e+00 4.2641211304718674e+00 1.6822868780642771e+01 3 5 1
188 2 5.2504281987147090e+00 3.6132649928943219e+00 1.7498104529631153e+01 3 5 1
566 2 1.2626062066321815e+01 1.8579236133339561e+00 1.3350215119622462e+01 -2 4 0
565 1 1.2201428923057254e+01 2.6969353003584184e+00 1.3423302769629149e+01 -2 4 0
72 2 1.0671362666523606e+01 4.0799784588817385e+00 1.5662370267475760e+01 3 1 0
120 2 9.0232589976359137e+00 2.6846509948081563e+00 1.5672511350547181e+01 -1 0 -1
70 1 1.0259578030453014e+01 3.5920982472238587e+00 1.4916990930021020e+01 3 1 0
315 2 1.3061811408843623e+01 1.1712764476224553e+00 1.6298529221414881e+01 -2 1 1
71 2 1.1013352041379477e+01 3.0695618303946812e+00 1.4529648191700890e+01 3 1 0
353 2 9.5876988328662787e+00 4.5191907398782716e+00 1.3578442327726236e+01 -1 2 4
567 2 1.2902125613963952e+01 3.1916481420845400e+00 1.3884340296923741e+01 -2 4 0
314 2 1.1942868429592686e+01 5.8470058921910550e-01 1.5333414057314702e+01 -2 1 1
553 1 1.0448896196751466e+01 3.4368029110528980e-01 1.4035651381416308e+01 -3 5 6
535 1 1.6453117957565119e+01 4.3512887375408544e+00 1.3474418505638878e+01 2 -1 -4
69 2 1.4848588943849855e+01 4.4740855564809969e+00 1.4166747954015445e+01 -4 -1 -2
49 1 1.3454167377529606e+01 2.6699117733974829e+00 1.6573333120371835e+01 5 2 -4
356 2 1.6741016670431907e+01 5.2967752681471614e-01 1.3705447762220851e+01 3 -2 -2
357 2 1.5205743712782180e+01 1.0825292385415830e+00 1.3732282736838926e+01 3 -2 -2
537 2 1.6748406790423928e+01 3.4468664403523359e+00 1.3449874522603768e+01 2 -1 -4
355 1 1.6132496160186626e+01 1.2725461833919633e+00 1.3857413297973723e+01 3 -2 -2
50 2 1.4442377919082006e+01 2.5959846877978543e+00 1.6505901903015346e+01 5 2 -4
109 1 1.6191178464193918e+01 2.8078663299804600e+00 1.6285893575719442e+01 -3 -2 -1
110 2 1.6183774345461906e+01 2.4868920910606960e+00 1.5369051193797926e+01 -3 -2 -1
111 2 1.6946035346825568e+01 2.3290014136855524e+00 1.6687323580569512e+01 -3 -2 -1
67 1 1.3919476962937802e+01 4.2634792063787774e+00 1.4400657110609441e+01 -4 -1 -2
51 2 1.3306847760668058e+01 2.8251575180019608e+00 1.7529297363516779e+01 5 2 -4
269 2 2.7430008547479017e+00 8.5523306194668471e+00 1.4425139448806608e+01 6 3 2
461 2 1.2010967209841961e+00 4.7456199088748781e+00 1.6289278982245960e+01 0 4 -2
460 1 1.2898398564431806e+00 5.4613899294332873e+00 1.5639149405934445e+01 0 4 -2
462 2 1.0475874971176560e+00 6.2609598038918888e+00 1.6163924624432909e+01 0 4 -2
261 2 2.8881581331218951e+00 6.5070104795479438e+00 1.5209997523469776e+01 -1 0 -1
260 2 4.2686866882636041e+00 7.1012366902936614e+00 1.5404472031453844e+01 -1 0 -1
259 1 3.4302602818224006e+00 7.1942993276060454e+00 1.4875829763184271e+01 -1 0 -1
271 1 1.1633759070155469e+00 7.4385811705547997e+00 1.7263051502495685e+01 -2 1 -1
273 2 7.9056216556472492e-01 8.2203623446815506e+00 1.6866964005509065e+01 -2 1 -1
272 2 2.1244621023762154e+00 7.6707853442634644e+00 1.7449623264018520e+01 -2 1 -1
185 2 5.4857971296292796e+00 5.9089408267873802e+00 1.3516794353475836e+01 1 2 0
124 1 5.5979897705855413e+00 8.4544371227731947e+00 1.7316711231870567e+01 4 -3 2
326 2 7.2092223139144798e+00 7.0841744901684471e+00 1.4381227011660856e+01 -2 0 3
327 2 6.5501443819468674e+00 7.5123338738650158e+00 1.5698050485636136e+01 -2 0 3
325 1 6.3060378466731608e+00 7.2551460373937466e+00 1.4804188996686346e+01 -2 0 3
189 2 6.0945083478635258e+00 5.0554523644213134e+00 1.7232666199933121e+01 3 5 1
280 1 8.7834504195752601e+00 7.3981728616225526e+00 1.3641849857885232e+01 0 0 -3
443 2 1.1874548257605161e+01 5.4237931338543719e+00 1.7252468824044097e+01 -3 -2 -2
528 2 1.3083002754911149e+01 5.6752564728698394e+00 1.4143371098951018e+01 -2 -3 -6
442 1 1.1007313309809923e+01 5.4123442093689036e+00 1.6770449290549099e+01 -3 -2 -2
526 1 1.2722160199523577e+01 6.5038693991283303e+00 1.3835077688093271e+01 -2 -3 -6
527 2 1.2223573745103966e+01 6.9007945548701528e+00 1.4525540307440965e+01 -2 -3 -6
444 2 1.0816661735642096e+01 6.3031771106230376e+00 1.6354045552932668e+01 -3 -2 -2
91 1 1.0754345227823965e+01 7.8649839568627060e+00 1.5435613350143161e+01 2 -3 -4
92 2 9.9297686807401213e+00 7.7387401322872904e+00 1.4798058719527035e+01 2 -3 -4
93 2 1.0616944477456144e+01 8.7085958197586404e+00 1.5954913658728207e+01 2 -3 -4
420 2 1.3949884883384133e+01 6.7342845322234588e+00 1.6509399029438953e+01 2 4 1
418 1 1.3706775632944741e+01 5.8305513518659211e+00 1.6661380995990960e+01 2 4 1
540 2 1.6256322533176185e+01 8.4713407202559807e+00 1.5128123041424624e+01 2 0 -1
419 2 1.4384312358339344e+01 5.4384560162693409e+00 1.7237257057606811e+01 2 4 1
536 2 1.6987640352774775e+01 4.7713715284421161e+00 1.4122470690054007e+01 2 -1 -4
166 1 1.5135203807210310e+01 7.8466470744655785e+00 1.3688308226105290e+01 -5 3 -2
168 2 1.4280396212338314e+01 7.3790961216248316e+00 1.3807792364267588e+01 -5 3 -2
68 2 1.3925169512183803e+01 4.5668325615177094e+00 1.5388148314154281e+01 -4 -1 -2
415 1 1.4005763454375140e+01 8.4148028913249728e+00 1.6921582634022410e+01 2 0 -2
6 2 1.2495523625318448e+00 1.1798092280342548e+01 2.7990627143954350e+00 0 3 1
4 1 1.4603487250283687e+00 1.1870291813016733e+01 3.7216409614842054e+00 0 3 1
5 2 2.3098337942378699e+00 1.1405003009811868e+01 3.7840701749987797e+00 0 3 1
199 1 3.1272121916457594e+00 9.2553234685124615e+00 1.0142880523989661e+00 3 -4 -3
200 2 2.9239597518438618e+00 9.1531217077938098e+00 1.9830771307878299e+00 3 -4 -3
399 2 4.5264044270016672e+00 1.1949696202866747e+01 8.8730784916766514e-01 2 4 1
256 1 4.1132690573980604e+00 1.1338405271436002e+01 4.3183658799325340e+00 -1 2 1
258 2 4.0082101839674680e+00 1.0366111292454571e+01 4.3032179140975488e+00 -1 2 1
283 1 8.2614028648706306e-01 1.0756819548613118e+01 9.7271291017205153e-01 6 -1 0
285 2 7.6716470469057652e-01 1.1745962185883965e+01 1.0460863164472374e+00 6 -1 0
574 1 2.6980148407205347e+00 8.8849154533607422e+00 3.7228329854960940e+00 -1 1 -2
201 2 2.4628507554621564e+00 9.8508382015617766e+00 6.6382942404495537e-01 3 -4 -3
257 2 4.8475184903573458e+00 1.1590334821969158e+01 3.7226692709774301e+00 -1 2 1
456 2 6.8083304268995812e+00 1.1303402243064527e+01 2.9597542816510245e+00 -1 0 1
454 1 6.1828133044776052e+00 1.1758436890281249e+01 2.3952824158336741e+00 -1 0 1
310 1 7.5149289576470419e+00 9.6924433406288060e+00 3.8396102919686506e+00 -2 -1 3
455 2 6.5458190435128056e+00 1.2661148890139646e+01 2.4329640039629377e+00 -1 0 1
311 2 7.5797943685813642e+00 9.3432798872415539e+00 2.9501349713679432e+00 -2 -1 3
312 2 6.9258654623264135e+00 9.2005701659877932e+00 4.4509259215285173e+00 -2 -1 3
422 2 9.0720173972538749e+00 9.0591157002484817e+00 4.3855998719085356e+00 -2 2 -2
136 1 9.0962551111422094e+00 1.2285165901052823e+01 2.4089231657078756e+00 2 -5 -1
486 2 1.1648843027725579e+01 1.2500937046993037e+01 3.5257144437200090e+00 -4 2 1
484 1 1.1700769223797167e+01 1.1554195625758121e+01 3.2540307209873909e+00 -4 2 1
485 2 1.2478437012397945e+01 1.1282668063492407e+01 3.7669530351324210e+00 -4 2 1
138 2 9.4729381128062897e+00 1.1537355375722735e+01 2.9576741917881031e+00 2 -5 -1
306 2 1.2941454883922679e+01 1.1529662137032567e+01 1.9462391267205488e+00 -2 1 3
137 2 9.9286225285035847e+00 1.2485854347042006e+01 2.0087049236611056e+00 2 -5 -1
304 1 1.3615439739287426e+01 1.1570662841178571e+01 1.2401209132166451e+00 -2 1 3
145 1 1.5658472897704979e+01 1.0007379191382780e+01 2.1600121482889492e+00 1 5 3
146 2 1.6564275564142630e+01 1.0335538587131451e+01 1.9040028560078766e+00 1 5 3
305 2 1.4448518037106874e+01 1.1263320876494484e+01 1.6665016362098206e+00 -2 1 3
299 2 1.4668717868721114e+01 1.1184380469589591e+01 4.4233666386590755e+00 0 1 4
298 1 1.3915981292335292e+01 1.0576067848456091e+01 4.4877502828212519e+00 0 1 4
122 2 1.6302910323321338e+01 1.2729700971188757e+01 4.8520553239943434e+00 -1 2 2
300 2 1.4192246294848667e+01 9.6706483070296372e+00 4.1981176270530387e+00 0 1 4
147 2 1.5740861612997788e+01 9.6877195482992278e+00 3.0547219723800483e+00 1 5 3
242 2 2.2846279928632831e+00 1.3403820095121553e+01 3.7592821687376010e+00 0 3 -1
243 2 2.7221832218696451e+00 1.4437930914793226e+01 2.6242126492320779e+00 0 3 -1
241 1 2.7456918239651427e+00 1.4273695636721001e+01 3.6011477233531699e+00 0 3 -1
27 2 1.5600705537998658e+00 1.5081844231489322e+01 4.4263920702890829e+00 1 -4 0
252 2 4.2545472051159603e+00 1.4472209898079946e+01 4.0711953701999599e+00 4 1 0
303 2 3.6091988005668938e+00 1.4315943972940367e+01 8.4802865276984429e-01 0 -4 4
56 2 2.7185942078803551e+00 1.6716965204527273e+01 2.7781637685044438e+00 1 -1 1
301 1 3.3624098952263419e+00 1.5228705340319829e+01 1.1632436113052400e+00 0 -4 4
302 2 4.0991623463137064e+00 1.5781572633808034e+01 1.4610815236612260e+00 0 -4 4
400 1 7.8239660292656268e+00 1.6918752054574572e+01 4.6662646397113718e+00 -3 1 0
410 2 6.4352227662243022e+00 1.6064455486737607e+01 1.3451788437924077e+00 -3 0 1
250 1 5.2202524212028578e+00 1.4640902639349394e+01 4.0533684164559496e+00 4 1 0
165 2 5.1350410718736272e+00 1.6586952675668869e+01 4.0553519198008683e+00 4 -2 -3
524 2 7.6965327202384062e+00 1.4193451300524153e+01 2.1517464037975707e+00 1 1 -1
525 2 6.2393127732860609e+00 1.4490884403631521e+01 2.7406020583268487e+00 1 1 -1
523 1 6.7681213552463424e+00 1.4285605449671653e+01 1.8769060956452845e+00 1 1 -1
251 2 5.5313749834144490e+00 1.4022497063279360e+01 4.7119872893204668e+00 4 1 0
318 2 8.6607394781115605e+00 1.6015481145449318e+01 3.4312713680334772e+00 -1 -2 4
409 1 5.9094612143463667e+00 1.6857506066877971e+01 1.0377439846908927e+00 -3 0 1
367 1 1.2433726435816572e+01 1.6779429252858691e+01 4.8319337995396330e+00 -2 -4 -1
389 2 9.2251344886291022e+00 1.3246362795093669e+01 4.4949645458990926e+00 2 -2 0
446 2 1.0364750453360026e+01 1.4583259885665163e+01 3.5557388584577967e+00 -1 0 5
445 1 1.1046010922228497e+01 1.4026143022300893e+01 4.0946049545041561e+00 -1 0 5
317 2 9.3647817679607055e+00 1.5781828688614825e+01 1.9914484609499417e+00 -1 -2 4
316 1 9.1229798353868912e+00 1.5400876415635167e+01 2.8494414645508646e+00 -1 -2 4
173 2 1.2553862519894849e+01 1.4628793143880397e+01 3.3966344324842885e+00 -2 -1 3
174 2 1.2910038308994693e+01 1.4772771880658340e+01 1.9124866551344433e+00 -2 -1 3
44 2 1.2468061468533850e+01 1.6701340484728195e+01 2.5855686681968395e+00 3 -6 5
396 2 1.6164511498478809e+01 1.3551105172088672e+01 8.5607857492529171e-01 2 1 0
172 1 1.3270444837308425e+01 1.4940561869642298e+01 2.7971529663226105e+00 -2 -1 3
493 1 1.5678821976689118e+01 1.6040938799353825e+01 2.9723411978868115e+00 -1 -1 2
395 2 1.6664005463930796e+01 1.3397598081142213e+01 2.3031489757370442e+00 2 1 0
121 1 1.5771225479595801e+01 1.3032621222458081e+01 4.0644039977506230e+00 -1 2 2
26 2 1.6936562159606446e+01 1.5134184739342315e+01 4.4525016084056226e+00 0 -4 0
494 2 1.4732929349428277e+01 1.5736429935920814e+01 2.8104886600807415e+00 -1 -1 2
123 2 1.5134110948622197e+01 1.3589654250694782e+01 4.5227344814773982e+00 -1 2 2
394 1 1.7004229464230104e+01 1.3344865149685008e+01 1.3764911780477143e+00 2 1 0
81 2 1.6469936561262834e+01 1.6270033028812378e+01 1.3241365447612319e+00 -3 1 1
495 2 1.5470373832837847e+01 1.6940254766523882e+01 3.2258459112462492e+00 -1 -1 2
192 2 3.5449350515242344e+00 1.2572675405957552e+01 7.4039684428258719e+00 3 0 -2