LAMMPS data file via write_data, version 8 Apr 2021, timestep = 4655000

972 atoms
2 atom types

0.18152964695200366 19.80952335303876 xlo xhi
0.008880377573013859 19.982172622440142 ylo yhi
0.21547771816936853 20.58529428185282 zlo zhi
-0.026578745878283808 -0.0845530175956942 0.14027261616846495 xy xz yz

Masses

1 16
2 2

Atoms # atomic

22 1 2.0216766101294334 1.1290292004466673 5.230978828618773 0 0 0
609 2 7.592742066279313 16.392510571420814 10.0439501426338 0 0 0
4 1 4.2115415913925585 1.224223330289107 3.4016954770082224 0 0 0
5 2 4.199207807760568 2.1935091976487944 3.386671486206794 0 0 0
469 1 9.051594760858002 9.297788322902422 6.79897336215387 0 0 0
7 1 5.9338687720851375 4.3262130887934065 5.243927042305283 0 0 0
8 2 6.778869814202107 3.936969393025872 4.81480849632971 0 0 0
9 2 5.143060488051473 4.179061279284151 4.602452948951829 0 0 0
10 1 1.5579290791532365 4.330690633278426 3.803859700858227 0 0 0
12 2 1.330967090047806 5.137186244858522 3.2193610729427315 0 0 0
13 1 5.002918637140453 5.655737675828528 1.3454381680281762 0 0 0
14 2 4.8686717509663895 6.388417866633246 1.9950793930384545 0 0 0
16 1 4.06723903641058 3.797313363773019 3.473061740146918 0 0 0
17 2 4.332044915542967 4.324776103632652 2.6873024260829004 0 0 0
18 2 3.1185615790011507 4.072264550411783 3.7150753864373254 0 0 0
24 2 2.312628907483592 1.8130847437223072 5.885820353981177 0 0 0
25 1 3.0341271018905718 5.54730089257443 7.162852686177853 0 0 0
26 2 2.8514652680535155 6.118800064426462 6.382075634028495 0 0 0
27 2 3.8773849438247616 5.803515134792911 7.55380028756175 0 0 0
558 2 4.4128505374794385 17.952772539170752 9.908117457406751 0 0 0
60 2 7.59136569218223 0.7815017824459098 4.989859853963995 0 0 0
19 1 0.8035269612544699 6.271970004350445 2.157034274545203 0 0 0
35 2 6.242896849800009 2.4563055694615454 1.5686477082468555 0 0 0
561 2 1.908015908213688 18.913746908851902 9.379512000113866 0 0 0
46 1 8.385662380066343 4.192456481527738 4.0514432917922765 0 0 0
891 2 3.3655536865556055 19.196625670880813 0.3932980702542251 0 0 0
48 2 8.235269368699479 4.729758934491359 3.264492025443311 0 0 0
55 1 7.735340331127323 5.625553783028029 1.760565246241189 0 0 0
56 2 7.7484674829733695 6.591538868155192 1.859333800680471 0 0 0
57 2 6.841440012545937 5.447388403101774 1.515913712332138 0 0 0
63 2 8.785638012583288 5.856458511187829 7.508636408402562 0 0 0
67 1 7.846696382252684 2.161560118016981 2.137151659187592 0 0 0
68 2 7.813346701504679 2.7975884042414734 2.8816881236522756 0 0 0
69 2 8.68316232203374 2.3770342701483766 1.6366628866663502 0 0 0
112 1 4.064624278237727 7.740024338750405 3.3986355920699296 0 0 0
113 2 4.7766620191925 7.6091833738423365 4.049770365621877 0 0 0
114 2 4.0189694912066765 8.713392168964356 3.388454310036405 0 0 0
130 1 2.128556298106821 7.354956463024868 5.403898214682041 0 0 0
131 2 2.6534323870893353 7.598757858084153 4.586402019633707 0 0 0
132 2 2.2822567658732287 8.139350793259988 5.9843771232622585 0 0 0
136 1 5.720602023520111 7.063907581324589 5.359631947327515 0 0 0
137 2 5.874937017985003 6.074498408631593 5.351988795992443 0 0 0
138 2 6.556559850985272 7.378670162780045 4.999969720138069 0 0 0
166 1 8.385803186839325 7.342447672367239 5.088060447957385 0 0 0
167 2 8.646703691376883 8.06439060771648 5.683291356788937 0 0 0
175 1 7.8232023367897785 8.307200420315118 2.1823222572221774 0 0 0
177 2 7.0413058601795155 8.859219284653793 1.9636669753619278 0 0 0
6 2 3.3749648084152493 0.9251830013905312 3.8268822744718283 0 0 0
448 1 4.283944554047705 10.48975943840728 10.116523347819642 0 0 0
30 2 5.658297150564445 19.532028630502868 5.701869438906107 0 0 0
325 1 2.8435609922420007 2.925779373504428 7.061961264536854 0 0 0
326 2 2.7757839139055376 3.877539024119195 7.143672195079336 0 0 0
327 2 3.790936820219139 2.7059455304735844 7.24397080123107 0 0 0
337 1 5.136446396482869 5.787223794374863 8.718189243938218 0 0 0
338 2 5.006600673328945 5.0219068302041645 9.326551656372951 0 0 0
339 2 4.754123276622452 6.528990413795677 9.186206578959874 0 0 0
142 1 5.4983056471333835 9.677649416491287 0.9726868292200066 0 0 0
675 2 1.8227929702415568 5.548745839100553 1.11194102310682 0 0 0
345 2 1.5474719333986098 5.741736268669036 8.203824994234928 0 0 0
357 2 1.6935866524810947 2.436172659668594 8.374319574695285 0 0 0
358 1 5.6286910059153845 2.6823089524932784 7.188942281748548 0 0 0
359 2 5.601384455611168 3.3989144873579256 6.542592854707314 0 0 0
360 2 5.8348279219324795 1.8342002869527172 6.65832595237806 0 0 0
363 2 8.611769271892578 2.1280896431998473 7.976412486929993 0 0 0
379 1 7.802116872617085 6.12046895517775 9.08599560737446 0 0 0
380 2 7.895794522657894 7.072430990404701 9.173293076295947 0 0 0
381 2 6.866920319970456 5.965972925184362 8.841420756037147 0 0 0
391 1 7.243294776628042 2.208126138296981 9.28918107856267 0 0 0
393 2 6.535822613294828 2.4508349624771943 8.636718959617369 0 0 0
467 2 5.264937341042013 8.32017078039793 6.70277209579122 0 0 0
129 2 1.09609838009765 12.566213824301045 2.5490133511928335 0 0 0
499 1 7.429896131638387 8.787245231597923 8.987696625269168 0 0 0
11 2 0.9790139426060149 4.433556269410745 4.565912214903167 0 0 0
253 1 9.089612650561342 15.749990923835409 0.3736832966955036 0 0 0
34 1 5.644960704873973 2.557703602690342 0.7835221306344204 0 0 0
571 1 0.56047307703042 15.577789211981235 9.044663747985735 0 0 0
471 2 8.579654235035525 9.090559968758908 7.6259852125821626 0 0 0
169 1 9.42145504915123 11.992886735019349 6.452000781677913 0 0 0
140 2 1.2518828397667456 9.841224564122719 2.974604701544166 0 0 0
15 2 4.129089321894166 5.6932589761967 0.8299638488722878 0 0 0
277 1 9.05597227775166 18.902025515766187 6.914558971319551 0 0 0
254 2 8.315250812879105 15.65159206222328 1.000105399669373 0 0 0
37 1 9.660104191451762 2.7508029099958407 0.3336174985531767 0 0 0
362 2 8.82658718327528 2.255767980098359 6.423096677930256 0 0 0
128 2 1.565508928159053 12.782667896874505 1.1281220566488732 0 0 0
500 2 7.496709242440159 9.500456135263791 9.685241129327533 0 0 0
435 2 1.9127055459337927 9.28086440583013 7.760627115494667 0 0 0
236 2 0.876612831480026 0.3344408073198287 2.246912237995278 0 0 0
33 2 1.226228592459778 2.7193767401168185 2.9566657156629206 0 0 0
247 1 0.9132099929083997 15.722998816839564 2.0630983037269126 0 0 0
452 2 0.77785208675268 13.808844514675352 8.808433305211516 0 0 0
433 1 2.6076169380891323 9.434635934799637 7.070407213464003 0 0 0
248 2 0.9724493066945211 14.717860633766717 2.015824724069162 0 0 0
392 2 7.404999334436045 2.9699948261629654 9.8700697844165 0 0 0
451 1 0.7007703327808884 12.89209272182215 8.451126296606892 0 0 0
553 1 4.759474444386233 19.436292100565616 8.771743939417965 0 0 0
123 2 4.25227553784073 12.511499259644884 1.1619746428202187 0 0 0
47 2 9.348649516205986 4.015340362835414 4.061265058065543 0 0 0
250 1 5.431970039200739 16.02504965834239 0.27440752882671016 0 0 0
463 1 0.7140947839773467 8.812019261396532 8.599077583445764 0 0 0
501 2 6.572951692214455 8.948596193349212 8.558873079572681 0 0 0
176 2 8.162687917431224 8.802372895568173 2.9366851068482434 0 0 0
23 2 1.0935694456612717 0.9260828721011035 5.387866499751541 0 0 0
29 2 5.285840078394334 0.7337246684782823 4.796157443369959 0 0 0
59 2 8.936538337964402 1.0379820665641748 4.2227201429379235 0 0 0
272 2 7.847999072872606 0.40189768037287865 1.9278813336197569 0 0 0
468 2 4.349134476921278 9.272925456764566 7.465289953968796 0 0 0
273 2 6.499814459735369 19.535080267362872 1.6084516998289697 0 0 0
278 2 8.932072840535762 19.467854568376804 6.094045599382404 0 0 0
231 2 4.6324408008012155 0.13865930815862854 2.036307648887526 0 0 0
329 2 4.490399132667552 0.7220517524130022 9.768142910840515 0 0 0
28 1 5.928274787427814 0.5264312447233644 5.544822656278311 0 0 0
466 1 5.297238763052668 9.192296406356744 7.142283652182734 0 0 0
119 2 0.9114799970381888 11.189152066679231 4.632669394535997 0 0 0
58 1 8.54519594819472 1.0145494448980226 5.0846662453096885 0 0 0
127 1 0.8956287401264734 13.114254121053106 1.7807757193576765 0 0 0
577 1 8.760657453484521 16.219499881172823 6.638241254247126 0 0 0
478 1 7.916799947480562 11.167791730542914 10.362469612169384 0 0 0
171 2 8.858172497519698 12.715369230966356 5.973989676737494 0 0 0
242 2 2.7934370252155203 20.011153769971934 6.108999937927324 0 0 0
143 2 4.499491420234973 9.621008064989566 0.9478676759450342 0 0 0
450 2 4.431345393883302 11.252011363766655 9.514455310226458 0 0 0
344 2 0.8994202016354782 5.538700914007527 9.59873906497641 0 0 0
596 2 7.621196779790655 0.48377950565795813 9.424085867470595 0 0 0
156 2 9.06451963401325 10.93973535989753 3.923997534665228 0 0 0
61 1 9.500047226323677 5.492231698854704 6.945136863374021 0 0 0
120 2 2.3962226057842684 10.967594368973042 4.0430016012051455 0 0 0
343 1 0.9018083684541751 6.156078502585216 8.833525635428073 0 0 0
578 2 8.877898563097467 17.19140516305146 6.577436558147611 0 0 0
126 2 4.936421701434712 10.205066683973545 4.410872365499046 0 0 0
434 2 2.5559087257394975 10.381020771350729 6.8246138868271995 0 0 0
31 1 1.210440748489845 1.9735077965152987 2.2745554762467006 0 0 0
559 1 1.4717584974211697 19.573457885998437 8.863299506249385 0 0 0
335 2 1.0066360729473274 3.6043324339850242 10.07948661911665 0 0 0
258 2 9.480285015892651 13.76544409663049 3.88593445403462 0 0 0
597 2 7.9189672646592575 19.051059218642465 9.794651271793986 0 0 0
927 2 8.278601362605066 18.592963624694793 0.5464328526887622 0 0 0
62 2 9.219496271328975 4.54530785826938 6.809266554902434 0 0 0
118 1 1.4919687812904425 11.24734535227991 3.8059824030125515 0 0 0
32 2 0.40134314803489224 2.1296643556360886 1.7138711805090072 0 0 0
109 1 2.569933603442236 9.499263749409101 0.43986026879647955 0 0 0
139 1 1.0170787517582234 8.965045267537834 2.47989712280085 0 0 0
279 2 8.281909431925177 19.104109334239702 7.47565822142186 0 0 0
607 1 7.111336943309112 15.857064362577006 9.371655840842125 0 0 0
240 2 1.1013266250295852 14.487920240331222 4.952178448729267 0 0 0
124 1 4.280953766907197 10.31231988528396 3.6778282000426294 0 0 0
115 1 6.166320350349731 11.122365939785485 5.7206702519304775 0 0 0
116 2 5.862368652223133 12.058154171165864 5.755874350415428 0 0 0
121 1 4.876108122279718 12.826871419002678 1.8260726838347419 0 0 0
122 2 5.782854994895664 13.018854236138871 1.4873697534327044 0 0 0
595 1 7.4658997933874645 19.545923579916213 9.054729631775754 0 0 0
125 2 4.794283265005512 10.632283687049657 2.9203958575728985 0 0 0
147 2 8.730443801649635 8.96761748347858 0.7652165130070819 0 0 0
133 1 2.46234052484258 12.247097749466858 6.625634802746466 0 0 0
134 2 1.7868586901640386 12.538126190529525 7.29423327135637 0 0 0
135 2 2.4079142220748326 13.014738532443685 5.997581502968422 0 0 0
579 2 8.274073176129292 16.129514310860028 7.491444767692654 0 0 0
251 2 6.03525129665704 16.058675682145815 1.0467729754258788 0 0 0
163 1 7.641451920742523 13.064126202878333 1.8270916484545063 0 0 0
164 2 7.707507181435539 12.329207441445295 2.4591663870693052 0 0 0
165 2 8.069549792526573 12.749147579892067 1.0030989461630304 0 0 0
210 2 0.31300637839374257 7.368491056254711 5.6102685871285844 0 0 0
220 1 4.008990222838602 14.723679146990198 3.346881241106404 0 0 0
221 2 4.120347317927415 15.695416582709923 3.0100227022073427 0 0 0
222 2 4.433536391719324 14.023550362524796 2.677178514425408 0 0 0
223 1 5.897418417879242 17.927626210030272 5.624407947359901 0 0 0
224 2 6.693317008625004 17.599135835135613 5.145915205036385 0 0 0
225 2 5.721254120189924 17.273026886617167 6.354031113180927 0 0 0
226 1 1.4457330300866267 17.777200971328067 3.745309379295212 0 0 0
227 2 1.1146748456401971 18.560060560657707 3.2686308009570406 0 0 0
228 2 1.1639289500609995 17.025804557653476 3.1919512588615 0 0 0
544 1 3.797642920927091 14.717031516930893 10.197968918856438 0 0 0
230 2 4.686346712230831 18.548037443968898 2.1866477903519144 0 0 0
232 1 4.211651053034584 17.435228516261645 3.2581425762796945 0 0 0
233 2 3.26181432781826 17.621459247204672 3.522267194672835 0 0 0
234 2 4.661132702764351 17.62728584061557 4.117541716067528 0 0 0
573 2 0.9211972431560339 16.30325583871479 9.595579240868894 0 0 0
238 1 2.039398470040052 14.728827110201909 5.06055942620385 0 0 0
239 2 2.4137303681385247 14.879590804031409 4.155342597998543 0 0 0
241 1 3.1894982218422223 19.323378370492588 6.684259799949809 0 0 0
243 2 2.823996557114276 18.437173721539224 6.39734895480604 0 0 0
244 1 5.342339578457862 13.831476665769166 5.601059526557763 0 0 0
245 2 5.175364128052637 14.455883763589801 6.302557449473923 0 0 0
246 2 4.884168086093933 14.168974825760916 4.758392221185413 0 0 0
249 2 1.600117503383194 15.953672829568896 1.3849306737634326 0 0 0
262 1 7.948226282370523 17.71003910422112 3.7827483133396864 0 0 0
263 2 8.912008391449698 17.537685626664345 3.8337304975964672 0 0 0
264 2 7.898755167697326 18.301721369409847 3.0104013459182193 0 0 0
555 2 4.188942960398348 19.407409280750993 7.966593950881601 0 0 0
274 1 8.186809688656094 14.004854154692067 5.425829790054207 0 0 0
275 2 8.284998519214554 14.891436255409273 5.841190595136958 0 0 0
276 2 7.235580063681052 13.811939088583804 5.343369658171206 0 0 0
560 2 1.8867800331557267 19.4990755688148 7.963690437526337 0 0 0
283 1 7.0241512878898975 15.625386017797005 2.2173403593833028 0 0 0
284 2 7.375868848325077 16.191865798548093 2.8789244156481026 0 0 0
285 2 7.384374245759798 14.724109605103235 2.4247660514619267 0 0 0
445 1 4.380505318269397 12.739617641234885 8.578955729155599 0 0 0
446 2 4.1188815361046425 13.464395337414972 9.143379364587954 0 0 0
447 2 3.7228411300038853 12.737981125384374 7.812893304611849 0 0 0
229 1 4.80227225657182 19.30822999450602 1.4994510848693265 0 0 0
487 1 7.348739749436697 13.232710238651622 8.543350056673901 0 0 0
488 2 7.88343130837271 12.81773376445224 7.844217514206628 0 0 0
489 2 6.406651391881312 13.074578905233569 8.281913392564068 0 0 0
541 1 2.52159884146511 16.374796636191018 7.054210815822287 0 0 0
542 2 2.0018165228441833 15.975885372251295 7.815076467839921 0 0 0
543 2 2.248343600780487 15.752199420773042 6.2890740496796775 0 0 0
574 1 5.192555291069736 15.735836324141111 7.524399271424799 0 0 0
575 2 5.674232755506649 16.016010872446458 8.351048214812678 0 0 0
576 2 4.280672832685206 16.077803795013242 7.633530132208974 0 0 0
465 2 0.7041489006891778 7.808588006180296 8.623323632727647 0 0 0
271 1 7.379762694682171 19.502533764023323 1.9906369534984707 0 0 0
154 1 8.099044242587084 10.877932607614659 3.67020601812449 0 0 0
237 2 1.2546333910438912 19.24145084567394 1.2536130545400699 0 0 0
355 1 0.9228358351613007 2.3330246054733506 8.978614734895114 0 0 0
554 2 5.648676673150676 19.62673108538572 8.515432826658968 0 0 0
235 1 0.6099052213166044 19.42374987731325 2.0112089436109515 0 0 0
20 2 0.8492617932628592 7.18786445608449 2.59111795587284 0 0 0
710 2 8.741372541459207 5.4460307692785594 0.4758884920513518 0 0 1
168 2 8.892262457162387 6.5613495736917145 5.362036957700993 0 0 0
111 2 2.0180459327707334 9.16033698829829 1.1149425776985114 0 0 0
155 2 7.682448498149343 11.044884609308586 4.513918648503124 0 0 0
117 2 5.661702783944527 10.65522121459283 6.434447041477076 0 0 0
608 2 7.297078177361804 14.904097817236773 9.483544902120347 0 0 0
470 2 9.136398673708618 10.290048118061328 6.718895375306856 0 0 0
3 2 2.423454550485907 2.4644010552208435 1.137270698207551 0 0 0
356 2 1.0944635416381303 1.4965633661262607 9.43141741632617 0 0 0
479 2 7.9707207562467275 12.065675702927605 9.973557230968675 0 0 0
443 2 0.814300062779077 10.089591767932207 10.106368855600682 0 0 0
449 2 3.300268895378713 10.339296735158976 10.093351354447677 0 0 0
150 2 9.968104611225753 7.622262307182834 4.03926054304377 0 0 0
361 1 9.048923738409803 2.6359286110877274 7.2877277719985045 0 0 0
444 2 1.1234688872784704 11.545035289246492 9.882433147581002 0 0 0
2 2 3.9602615783714015 2.423312970188206 0.6913671483271053 0 0 0
437 2 4.0269809262299265 8.504912878442063 10.16778550782669 0 0 0
141 2 0.28984285714788366 9.195070057499471 1.9019503778030784 0 0 0
436 1 4.093794682436092 7.582939431502685 10.379512498971241 0 0 0
673 1 2.4318234903557725 5.26520408355838 0.3537163985273195 0 0 1
1 1 3.068033870559438 2.6338543282081637 0.37246505067021424 0 0 0
372 2 8.192178413161756 4.897627614257243 10.200070074748123 0 0 0
781 1 2.7394520254138985 12.115661638478429 0.24882866934267242 0 0 1
218 2 3.7008627406072927 15.879215102901822 0.25556105774026433 0 0 0
36 2 5.851428021603009 3.4803980079694443 0.4653696701136507 0 0 1
674 2 2.6366184571730966 4.275405785665245 0.2814513325854092 0 0 1
297 2 0.16252663945171303 17.84585635498276 5.236924334450528 1 0 0
557 2 4.447934796808156 16.476090180288914 10.375517278023594 0 0 0
331 1 6.257874401404036 4.622702081737482 12.520854518723027 0 0 0
332 2 7.0530411964273085 4.478988769315854 11.962568046522414 0 0 0
333 2 5.595178916776504 4.492259517604853 11.888940845505932 0 0 0
370 1 8.18962077053302 4.142481053842562 10.847725329691531 0 0 0
348 2 2.2949986839641 1.8245692809486256 12.713041731215128 0 0 0
349 1 2.597116021604635 5.661134559163156 13.879314760911134 0 0 0
350 2 2.471233478774545 6.264739299342798 13.096963052910496 0 0 0
351 2 2.5260870136287177 4.701422278773043 13.697486441922992 0 0 0
656 2 5.879750027447177 5.641163638945547 19.61720722400452 0 0 0
586 1 8.246427253302416 17.888271960503264 10.973448905361714 0 0 0
387 2 8.580678230305423 6.098301877308974 14.356412785058268 0 0 0
885 2 0.8659386953159567 18.632166429606883 16.208380518442713 0 0 0
454 1 1.7725844593453381 7.535592851083973 12.081147544817345 0 0 0
456 2 2.192911046399791 8.344249883871859 12.524153394589439 0 0 0
460 1 5.40704140928244 7.111047457834085 12.510158079179638 0 0 0
461 2 5.493767953693556 6.164494251111103 12.837385529273433 0 0 0
462 2 6.363657531357688 7.2379759385648486 12.308505146836673 0 0 0
490 1 8.159229753494525 7.478862255724625 11.979343565236974 0 0 0
491 2 8.472003911485478 6.665574985072996 12.420930523138995 0 0 0
649 1 2.630190269826193 2.8707259395769906 14.012434947245547 0 0 0
650 2 3.596440748919821 2.8423934912214763 14.273206545393467 0 0 0
651 2 2.1856146338543194 2.6343158405769955 14.815465301222517 0 0 0
652 1 4.479100187989011 1.154414229237752 16.988166122120628 0 0 0
653 2 4.217977669822187 2.081110082762121 16.85056982516884 0 0 0
654 2 5.063962373517884 1.1168570022882862 17.774549547658896 0 0 0
655 1 5.967489967789106 4.760507320889928 19.221936200720428 0 0 0
657 2 6.690618105504514 4.749085873961219 18.556959195943232 0 0 0
658 1 1.502044499662909 4.4302515545228545 17.685361888742616 0 0 0
659 2 1.2368615906445926 3.6424678354589766 17.16788991245403 0 0 0
660 2 1.2747148487376183 5.236733613703609 17.17655042279332 0 0 0
661 1 4.811547094800935 5.877352994486284 15.451861633380675 0 0 0
662 2 4.717099037216622 5.116850495260142 16.031712124679135 0 0 0
663 2 4.129559340468041 5.9614494550222625 14.763601203632184 0 0 0
664 1 4.143527823661863 3.9397078171660214 17.370069423442953 0 0 0
665 2 3.1577662631467693 4.208090069729763 17.558457662016625 0 0 0
666 2 4.699218107285438 4.107247673440013 18.173958156590675 0 0 0
669 2 1.3677981995141422 5.8647125783923695 14.895249170165659 0 0 0
671 2 2.499537872145384 2.0327511350736924 18.968267684271282 0 0 0
682 1 5.2326237314269965 2.704647433629795 14.347934185837387 0 0 0
683 2 5.733351090473837 3.458351775151469 14.033887098311801 0 0 0
684 2 5.5186228379493825 1.9803749687485799 13.695565529562877 0 0 0
694 1 7.899950569322478 4.274213307239094 17.4435455393248 0 0 0
695 2 8.875474098936715 4.234292042914062 17.626007761185868 0 0 0
696 2 7.7312184763795955 3.3783057567180563 17.22105840756166 0 0 0
703 1 7.435216211889823 6.349403331453485 15.489023050447454 0 0 0
704 2 7.6118172094599785 5.805757498744853 16.23763245595659 0 0 0
705 2 6.46401176802795 6.25345912855201 15.33375554532499 0 0 0
715 1 7.24227620860799 1.9832605935171033 16.098668696561514 0 0 0
716 2 6.260914149219292 2.064328526869664 15.90014284443631 0 0 0
717 2 7.744934976849946 2.446044908726002 15.406009600826392 0 0 0
785 2 5.357398339853634 7.638628369452713 19.944016325847706 0 0 0
760 1 3.8295983048376527 7.901978432336938 17.1117239381289 0 0 0
761 2 4.017584647734429 7.140761654726402 16.55546449602399 0 0 0
762 2 4.50292871180549 7.688798080621689 17.88765559989411 0 0 0
778 1 2.018538176435375 7.551609150899123 19.141199528566986 0 0 0
779 2 2.6235388650869895 7.50340739334194 18.33666934156725 0 0 0
780 2 2.2593655379844546 6.734683248779304 19.579565066313357 0 0 0
784 1 5.628690714801574 7.604769792293671 19.020776564693087 0 0 0
786 2 6.564120896937841 7.802807850975999 18.79964663968777 0 0 0
791 2 5.494368801526697 8.498343266030236 13.622025051943519 0 0 0
825 2 6.695487713338129 9.239271522101367 15.255241676031103 0 0 0
814 1 8.213691328788496 7.747048324569418 18.337994680125973 0 0 0
815 2 8.524145372096761 8.349432153160317 19.056344140834177 0 0 0
816 2 8.37505542517609 6.850830001329578 18.72396858214396 0 0 0
823 1 7.479545983420525 9.118313626612034 15.861141369398663 0 0 0
824 2 7.447125327061726 8.154156604710465 16.11162597926747 0 0 0
371 2 9.210961557508451 4.018050674715307 10.931286414850543 0 0 0
795 2 8.474143997922301 9.376677374222998 14.417762288889215 0 0 0
678 2 7.00839922501129 1.020888814419126 18.86085189515135 0 0 0
330 2 5.020666888970719 1.3417439586073592 11.118831787821179 0 0 0
346 1 2.18867479521248 0.9635292503288612 12.22521284160548 0 0 0
442 1 1.481572690237552 10.810084714357323 10.414015319554046 0 0 0
328 1 4.2911390681718045 1.4154979755509434 10.431138413083767 0 0 0
672 2 3.034029172355798 0.9894422499972458 17.99378687785755 0 0 0
492 2 8.367273067084929 8.183810615019379 12.625751386030217 0 0 0
767 2 1.2044572176286759 10.080037980356877 16.965497708762815 0 0 0
552 2 2.5073544389418503 17.471049250161872 11.301832636219563 0 0 0
110 2 2.3572542613066734 8.927970482810524 20.068132509905595 0 0 0
708 2 8.70169464650975 19.888463663754163 19.12012648040792 0 -1 0
383 2 9.157888144245211 0.40609206010481597 12.894600611121987 0 0 0
804 2 7.668251807235116 10.088315082942925 16.925133444599506 0 0 0
728 2 0.19257346326509753 4.5136026169901475 18.865343002214345 0 0 0
789 2 1.6413107711792099 9.010916041945578 15.386114009828434 0 0 0
217 1 2.734920487109005 16.132454256898974 20.288329531198123 0 0 -1
889 1 2.4806480897644603 19.00268913723068 20.32137287798808 0 0 0
438 2 4.736432507065593 7.394754765008006 11.071512653279958 0 0 0
897 2 0.7075226643704907 16.130535024314135 16.301915000257743 0 0 0
385 1 9.27419037397945 5.736102496606805 13.748227437593894 0 0 0
600 2 8.364267718564237 15.183230760712366 12.27298729159133 0 0 0
775 1 0.7079761653816068 12.8167499900822 15.539066782527392 0 0 0
341 2 3.472678066672522 4.235305208971257 10.663265189457482 0 0 0
793 1 8.853447249944379 9.447417685044288 13.553049235364977 0 0 0
144 2 5.559159713135702 10.345481149927924 20.492812965884255 0 0 0
790 1 5.541779673511402 9.321618056237432 14.152310125204298 0 0 0
706 1 8.628750068994599 0.8283798360818884 18.820362810876837 0 0 0
757 1 2.7715438117380047 9.335691680351676 13.825953483723595 0 0 0
670 1 2.24540459811795 1.1538334636266985 18.579816241025476 0 0 0
920 2 7.303998002081368 0.1289618161493521 15.961829689534142 0 0 0
676 1 6.021950980308669 0.9659163625810079 19.047448939291733 0 0 0
352 1 6.17309846508836 1.129759889376091 12.534130205771538 0 0 0
382 1 9.07161621963052 1.2292154722641766 12.389905712105232 0 0 0
794 2 8.520405812176637 10.296846787942622 13.285605869126002 0 0 0
677 2 5.83003793439726 1.5288550656325213 19.87594190009809 0 0 0
902 2 9.01127112981277 17.312085817201574 13.686020026468615 0 0 0
334 1 1.2017861998779187 4.322214753864218 10.692830230630443 0 0 0
782 2 2.5914669391144014 11.277457936880314 20.460425328614715 0 0 0
551 2 0.9659995644121336 17.594413894905653 11.464564464960787 0 0 0
758 2 3.681757001610038 9.463651519490117 14.079463923030238 0 0 0
550 1 1.698939474350945 17.643878850559222 10.778727137138851 0 0 0
353 2 7.057511744517087 1.5210815691460395 12.31525250324147 0 0 0
219 2 2.670330050891744 17.110061166725536 20.20736360005339 0 0 -1
773 2 4.682055636379042 9.598431360627684 16.721353556219558 0 0 0
252 2 5.321652734302295 17.062668647606564 20.27078061447604 0 0 0
901 1 8.863710515649673 16.362166514357586 13.77763847990947 0 0 0
546 2 4.55561152764023 14.50220149996047 10.792356866931645 0 0 0
681 2 0.8459976258688346 1.171210693525313 15.954908380343678 0 0 0
792 2 5.613809679362781 10.01894999832928 13.485870006018564 0 0 0
817 1 9.067980769783338 12.048437768598124 20.062049422758736 0 0 0
336 2 0.7705098193937445 4.220269532232113 11.557145638257348 0 0 0
667 1 0.7417944035397243 6.209992949418426 15.568962553616617 0 0 0
749 2 0.4983169458400777 0.9104385419450133 18.783214830262747 0 0 0
495 2 9.08843199585946 13.322286740337344 12.616949770866208 0 0 0
774 2 3.6563811257511887 10.48982158734434 17.316595790005454 0 0 0
883 1 0.6521213687440667 19.226414393666847 15.423460200405312 0 0 0
707 2 9.176007901172708 1.0021662200893489 18.07141470682525 0 0 0
819 2 8.943380159403358 12.863149824225916 19.51675215252626 0 0 0
921 2 6.394475261641577 19.062076980991193 15.35983627858471 0 0 0
386 2 8.976619388500508 4.83149772490342 13.513835204128616 0 0 0
493 1 9.250445785238568 12.589649123087616 13.21049991481236 0 0 0
876 2 0.7154973766857661 17.607691401857014 18.15847082961742 0 0 0
879 2 4.383196438420978 20.06120901373441 15.581679425576112 0 -1 0
384 2 9.378255302882353 1.2273474494070125 11.446508132334646 0 0 0
426 2 0.24733933135146913 0.5560738352156481 12.375347187353071 0 0 0
932 2 7.458415877375598 15.775272326511086 16.79599829804448 0 0 0
709 1 9.217742812158841 5.6743615040778295 20.021938590524304 0 0 0
933 2 7.964101219060543 15.832918172037969 15.3364240557694 0 0 0
798 2 9.532367570181174 7.794032721942416 17.394927015769962 0 0 0
480 2 7.354135017382101 11.208383026057968 11.117546567875085 0 0 0
685 1 8.861723351273586 3.0538989918371278 14.256803431950697 0 0 0
439 1 5.960794353928389 11.208547701630641 12.012444969897436 0 0 0
440 2 5.711485493111991 12.164036646502103 12.152600321701264 0 0 0
441 2 5.505051414495529 10.862407459865677 11.190926420394158 0 0 0
39 2 9.272187808924103 2.3712438730635896 19.936584832021378 0 0 0
457 1 2.4831816094617505 12.233380513272143 13.708561877707773 0 0 0
458 2 3.291220664917707 12.558298663358043 14.114208029582642 0 0 0
459 2 1.7032260031072908 12.462561121154781 14.330519377034404 0 0 0
494 2 8.577967086087282 12.714824532324032 13.885715394618353 0 0 0
145 1 9.202233810504518 9.24325828638514 20.361752503443274 0 0 -1
931 1 7.328631059874926 15.33166182910661 15.904574063999497 0 0 0
547 1 6.097931629029699 18.396738507964102 12.403322293737007 0 0 0
548 2 5.436849425624187 18.074007886214584 11.788884618398106 0 0 0
549 2 5.841048664421589 17.767907672619653 13.186149419962756 0 0 0
562 1 1.696293809827314 14.152084725933385 11.87038894474866 0 0 0
564 2 1.9326672534630884 13.410933402808022 12.452345745134217 0 0 0
565 1 2.557098860887941 18.74942643385213 13.584312995081435 0 0 0
567 2 3.4496967742733973 18.947727268256788 14.016566652025192 0 0 0
568 1 5.587315416375977 13.925657747418771 12.091433643473149 0 0 0
569 2 6.488437680483327 14.02682535610062 11.793825698395644 0 0 0
570 2 5.5146286074876905 14.669750007563815 12.68042942876177 0 0 0
588 2 7.5945077304660495 17.96479561673745 11.735512413483 0 0 0
455 2 2.1895184553301843 7.50047151690718 11.225309273909392 0 0 0
598 1 8.489817992801292 14.422587649006998 11.630533153759458 0 0 0
679 1 1.0404972972281148 2.1234087164285786 15.914903737027815 0 0 0
763 1 6.077904713167899 11.683512133291568 19.282401605432437 0 0 0
764 2 5.415596688961873 11.33460707154695 18.659867767205906 0 0 0
772 1 4.572516247709952 10.543874481697731 16.922573575850336 0 0 0
768 2 1.5667307087757076 11.584053242131233 16.88894847329784 0 0 0
769 1 4.9177629621712535 12.732533187478245 15.191962056803503 0 0 0
770 2 4.660315405616582 13.54028149457158 15.736409876697685 0 0 0
771 2 4.471112014774044 12.054056338470964 15.707629646454052 0 0 0
924 2 7.783243928411722 14.335766332759183 18.627142177540765 0 0 0
783 2 2.513668019390624 12.882447187970971 19.881494783761028 0 0 0
803 2 7.9527754609624255 11.62970795105066 16.68156897880397 0 0 0
811 1 7.618611070173469 12.643621896355684 15.205610868158605 0 0 0
812 2 6.646559671642777 12.496840284417813 15.161799388777805 0 0 0
813 2 7.556220149685737 13.586611208492293 15.557276690807786 0 0 0
911 2 8.858023820264123 17.369568774206478 17.753987592651832 0 0 0
765 2 6.874524879415779 11.457668745195372 18.714836664849884 0 0 0
865 1 2.6447778198080916 15.960676009408582 13.71362468746314 0 0 0
866 2 2.5380095546861576 16.93645429656287 13.649659790204451 0 0 0
867 2 2.3189627062544287 15.537961594477906 12.89820047959484 0 0 0
868 1 4.239109647376846 14.894936792242758 16.9261612186725 0 0 0
869 2 5.003905864109214 14.635055037819427 17.50068738657398 0 0 0
870 2 3.381288050657932 14.685698460477559 17.39290269023503 0 0 0
871 1 5.7391726664104885 18.227627774271863 18.891295990585444 0 0 0
872 2 5.919190169931919 19.196181250299425 18.952215393383696 0 0 0
873 2 6.431128011866149 17.8127685336483 18.342386738679494 0 0 0
874 1 1.1685690409903997 17.39785360901169 17.36375991683539 0 0 0
875 2 2.123798869097268 17.559289248605022 17.36892161266557 0 0 0
878 2 4.542099871954893 18.59850870217845 15.716122333947508 0 0 0
880 1 3.925961073041363 17.414104620915232 16.847649550531326 0 0 0
881 2 4.109442780699092 16.44507632072094 16.718882818321347 0 0 0
882 2 4.374730670990039 17.637856043658477 17.688384785622354 0 0 0
886 1 2.3600733399918328 14.289651890439496 18.608760327239676 0 0 0
887 2 2.622671972329366 15.133610776507677 19.107967925293877 0 0 0
888 2 1.3786479359347779 14.301185033551851 18.474426062414857 0 0 0