LAMMPS data file via write_data, version 8 Apr 2021, timestep = 143912000

576 atoms
2 atom types

-0.019859985933901796 17.93986098593846 xlo xhi
-0.22486098593320478 17.734859985939636 ylo yhi
0.12514001406461808 18.084860985937457 zlo zhi

Masses

1 16
2 2

Atoms # atomic

504 2 1.7287568698227125 3.4711269690740156 1.5929829414199934 0 -2 -1
172 1 0.7739778278688014 1.8567869711019165 0.8458115655114007 1 1 1
575 2 4.021495837394118 3.8336679224956187 1.9010997544895487 -1 3 2
173 2 1.4932037367770177 1.2185690789804169 0.5143366364551407 1 1 1
279 2 2.1110072103714304 1.623574583701106 3.3681441839157364 2 1 0
502 1 2.3851687804058286 4.0561080492967125 2.060206333851638 0 -2 -1
277 1 2.32533363225504 1.651853543839756 4.298961024853154 2 1 0
174 2 0.2900875556537881 1.2641956449203722 1.525851853320621 1 1 1
474 2 3.288846060574549 0.01666086847539569 4.305174279393506 3 2 2
574 1 4.9386317258072685 3.6599543928280553 1.544158309142022 -1 3 2
311 2 5.636545208908964 0.855505849816781 2.647428019911333 6 1 4
312 2 5.698277645589884 2.4408449533227943 2.5295161935116477 6 1 4
310 1 6.212486816555598 1.6583392859131323 2.884509427665501 6 1 4
513 2 7.891098481635958 1.6178453684606486 2.7721185632945486 0 0 2
495 2 8.719170457431659 1.6552216852437605 0.9050542665077881 -2 0 3
57 2 5.667130320093973 2.240058600186006 4.589804891556847 -2 1 -1
511 1 8.79842728936096 1.382276161669069 2.566671700043746 0 0 2
503 2 1.8056898760254938 4.883726559998677 2.2274870709655947 0 -2 -1
398 2 1.4221186127488696 6.959833723066758 2.0592582314469334 0 4 2
12 2 2.8716214827704296 7.605979437121532 3.474909649483991 0 1 3
10 1 2.4506274402757686 7.906851500510507 2.664580121112736 0 1 3
397 1 0.8805874022428121 6.169495672404737 1.9069311813959522 0 4 2
399 2 0.6507182405069741 6.181512586310073 1.008849992993877 0 4 2
3 2 4.008884726577458 8.183545567043796 2.118345073146518 1 -2 0
284 2 3.173225607930135 5.107708458990547 0.30649058349417935 -1 2 2
576 2 5.470246244936983 4.559926490288828 1.6411709390065623 -1 3 2
185 2 8.266406861176645 5.614841232627687 2.0437850374657613 -3 -4 1
417 2 6.060038685245044 6.814001127164131 1.975628845521034 1 -2 0
416 2 6.338216109179033 5.6551318408049465 2.980804209054926 1 -2 0
415 1 6.422570099304628 5.91782582593691 2.0232838567228772 1 -2 0
1 1 4.963552281489177 8.183688485442492 1.84820885463088 1 -2 0
264 2 5.72136624718773 8.31110938820682 0.22679623694261059 3 1 2
273 2 2.2895980468292194 3.5055355830461536 4.676511674075947 0 3 2
46 1 0.46122620562814093 0.4165763632217172 5.9583675901583915 -1 3 2
278 2 1.54326947093322 1.3528328672231313 4.753896487079988 2 1 0
219 2 3.1026524294306213 2.3484530790395106 8.276739031376485 4 -1 1
88 1 3.9939064463684453 3.531985953299699 7.373556745011368 -1 -1 0
272 2 2.739742653323243 3.9225163822233213 6.099406300350503 0 3 2
271 1 2.2391466609534336 4.238977119015484 5.325825081014164 0 3 2
218 2 2.6224606371539294 0.8588776429539263 8.51901182838862 4 -1 1
47 2 1.144499211825866 -0.06073950496865854 6.50466324102417 -1 3 2
217 1 2.558046235580497 1.7728990289141109 8.797442960938747 4 -1 1
90 2 4.531885114786973 4.1635502707010685 7.924872666867959 -1 -1 0
89 2 4.527310264225255 3.143323560937018 6.632967986054927 -1 -1 0
55 1 5.756260021088022 2.7570751854553275 5.3864223710608945 -2 1 -1
162 2 7.426998008273217 2.709141556048417 6.047633354608956 0 -3 3
56 2 5.856281571690812 3.664534403608137 5.046984919592374 -2 1 -1
160 1 8.400652967970032 2.856049811646251 6.234348681291845 0 -3 3
554 2 7.050034824694614 1.2809595690474707 7.934861108322289 1 -2 3
553 1 6.614629138967044 1.4976956537025783 8.739891048089676 1 -2 3
161 2 8.946269470676157 2.001685881885085 6.205934495781713 0 -3 3
542 2 0.4727686575915396 4.500729239463215 5.052811866070199 -1 2 3
130 1 3.797540260467326 6.5188207844306945 4.862648075671672 0 -1 2
131 2 3.2338639853203106 5.711570710316189 5.018592041395798 0 -1 2
132 2 3.739008628823226 6.992538319760032 5.75917268653286 0 -1 2
62 2 3.2332421581904676 6.983832139547098 7.861698560953546 -1 -4 0
61 1 3.2479399287069994 7.616805669891831 7.136454312002773 -1 -4 0
63 2 2.4956753263356237 8.273624132742441 7.271571271318009 -1 -4 0
382 1 6.132146639287363 5.2760044570357465 4.675157581125711 1 4 0
383 2 5.223635223151845 5.779685131213518 4.639318351968249 1 4 0
384 2 6.795334154340481 5.933538740112919 5.036888203405108 1 4 0
150 2 7.535701962536876 7.138040004659058 6.879834907832948 -1 3 -2
148 1 7.50347438137735 7.483731781769255 5.947122878238553 -1 3 -2
149 2 8.323744050669081 8.030944026210353 5.767922558809499 -1 3 -2
532 1 7.74742016483732 6.555663344923081 8.59710551623235 2 0 -1
534 2 8.464288624027924 5.829909688563545 8.607179280955865 2 0 -1
39 2 6.266015651308983 5.615018539627785 8.962064654626444 1 5 0
507 2 6.290882368908659 8.567875685659034 6.012835241308817 -4 -2 -2
468 2 0.301934205397464 0.6191542662094774 12.368337580541876 1 -1 -1
434 2 0.9759995158249958 1.9684256981782353 9.111173201220492 -4 1 -1
498 2 3.358103455511043 1.920144897921191 10.551167356260708 1 0 -3
64 1 2.2715939115093793 3.427235118524423 13.4229292261608 1 -2 0
496 1 3.689151149662908 1.9133243891257783 11.468544209103262 1 0 -3
497 2 3.0929551486582416 2.443771391208723 12.01768287639515 1 0 -3
65 2 1.586239942983967 4.1605126413397135 13.501429795522707 1 -2 0
467 2 0.05131166117021212 0.9028472149216772 10.793909127446673 1 -1 -1
466 1 0.044038206748474404 0.2457528915249562 11.48007446020348 1 -1 -1
236 2 4.773105892056911 3.3336448285095446 11.862700705240924 0 2 -2
452 2 6.734073072730919 0.1471357653772419 13.481068100940476 6 0 -3
104 2 4.585107504562728 0.5290590411695458 12.003532231160523 1 -1 -3
555 2 7.265439824944528 2.0191310340576223 9.242953181810115 1 -2 3
255 2 6.717291360516422 3.5079069557477176 12.895942080296386 2 3 -1
460 1 8.291103391575598 2.867263516878635 10.205073368846321 1 1 0
254 2 8.142100682844251 3.585830345427427 13.543099490445961 2 3 -1
235 1 5.446899595083914 4.038578024880381 11.852030460303673 0 2 -2
103 1 5.202596638141248 -0.137448343120664 12.412225240332914 1 -1 -3
461 2 8.90972151022526 2.1583403964627634 10.446646070328354 1 1 0
462 2 8.580482993038624 3.359696746857661 9.43849301700599 1 1 0
563 2 4.042150021299749 5.708755349677075 9.695531444867653 -1 0 1
562 1 3.370200181223216 6.440846683626596 9.592937774160943 -1 0 1
385 1 0.5103374725071568 5.4245809724441845 13.199164610345292 0 1 -1
564 2 3.7407966609105707 7.084259483259944 10.238227703138936 -1 0 1
251 2 1.8838945618630054 6.110704003772131 10.284616595283659 2 1 1
250 1 0.9416358763197259 6.159530740054106 10.55296239807736 2 1 1
386 2 0.6157087750347318 5.610637161334958 12.226487414197893 0 1 -1
252 2 0.48118448473305453 5.356096688579834 10.149125416899423 2 1 1
552 2 0.37101368577023897 7.471240126280972 9.856571492373758 1 -1 2
25 1 6.994438594722995 8.538721068508094 10.397390422564806 3 3 2
37 1 5.5431954126097835 4.990215111729838 9.118753938523332 1 5 0
533 2 7.910977854866542 7.222044734456039 9.307329374527548 2 0 -1
208 1 4.532694926048283 8.006218329014924 11.490281046979522 -2 -2 2
209 2 4.763555339721959 7.465384929454344 12.265581474742364 -2 -2 2
213 2 7.8300042789979525 6.2312498591060415 13.310152136783962 0 -1 -1
237 2 5.180879522888629 4.646273649350925 12.560363562630336 0 2 -2
38 2 5.729319472431125 4.521082074159217 9.914651239671123 1 5 0
210 2 5.354098008969058 8.15474278864458 10.993314514794664 -2 -2 2
216 2 8.08951316315971 8.611156603403881 13.321315069152611 0 -2 1
159 2 1.2289498084628234 2.1876893727214064 13.972611735955182 -1 3 -1
158 2 0.024204721001909468 1.7589509192261883 14.762920883726496 -1 3 -1
66 2 2.9760179696710147 3.6754372813458516 14.105274433024988 1 -2 0
305 2 1.5581340657627643 0.18045358305949113 14.854882946396815 -2 -4 2
469 1 2.9151969649952476 0.44412946318961166 17.674196796804104 -1 1 1
470 2 3.6072130461080647 1.1288353035947047 17.663769583636526 -1 1 1
157 1 0.6309725945577246 1.4093986243438439 13.99236432792469 -1 3 -1
163 1 4.187829889918205 3.9013834254802457 15.282136574195956 0 -1 2
306 2 2.1397457904889405 -0.06733441626732972 16.319270821097682 -2 -4 2
493 1 8.91957151196174 1.6038628691813104 17.94913040236091 -2 0 2
253 1 7.173074766010694 3.2740162394896237 13.691061265005805 2 3 -1
453 2 7.396103486893008 1.5661571773323673 13.710910104319213 6 0 -3
165 2 4.611087617937328 3.29629551641314 15.885600303412376 0 -1 2
260 2 5.122990488113282 2.7773116465709036 17.96531165245313 0 0 3
259 1 4.927293469033591 2.1774736477034033 17.224162020314605 0 0 3
451 1 7.42260340542293 0.5924660036986654 13.970437722066642 6 0 -3
525 2 7.838151279489168 0.6232979439919483 17.03744241224773 0 -1 -2
523 1 6.986766315499566 0.4396743343426498 16.584732040311394 0 -1 -2
524 2 7.241898068174341 0.4924317434869544 15.637676538141536 0 -1 -2
261 2 5.772583976761076 1.7592812239390883 16.983576015662596 0 0 3
285 2 3.4237696633698818 4.50834327774219 16.83547704530776 -1 2 1
283 1 3.1146107463412163 5.315290088587314 17.31610040084126 -1 2 1
291 2 2.586876613030594 7.614463592876122 15.185380097557719 1 -1 -1
514 1 4.056133744819828 7.17651816792975 15.797141103444904 0 -1 -1
290 2 1.4780147242073234 7.069579288764331 14.191273489256155 1 -1 -1
413 2 0.48714874813518383 7.284231526581426 16.507888376209277 0 -1 -4
289 1 1.671771577859186 7.727288376171516 14.878282563231151 1 -1 -1
515 2 3.736611264011705 6.403928996530427 16.360396419425097 0 -1 -1
262 1 6.14710010031856 8.259023188668259 17.288283736109783 3 1 1
211 1 7.523564648994442 7.000733869641049 13.77057487304834 0 -1 -1
49 1 8.183300057508673 6.670765837424832 16.543728471575424 -2 -1 0
221 2 6.004893020691364 6.307722161168958 13.649624009891756 1 0 2
220 1 5.049362828701054 6.04285872253554 13.609903706327245 1 0 2
164 2 4.805273999147554 4.448380169928852 14.818897494346611 0 -1 2
516 2 4.737086483361728 7.625678864114536 16.350771759061615 0 -1 -1
50 2 7.551564901777094 7.312225270494447 16.907349359964968 -2 -1 0
212 2 7.685976706314129 6.779069099465265 14.724222716166402 0 -1 -1
222 2 4.56747711066355 6.443518542714255 14.416768331795973 1 0 2
9 2 8.82216814749622 4.743481392303398 16.933557261696528 -1 3 -2
328 1 1.475341940296463 10.358940375051896 3.080368622579112 0 3 -2
330 2 2.1087239757851948 11.07852070112602 3.222896251208012 0 3 -2
329 2 0.8479486496193835 10.805064624029 2.440646056577316 0 3 -2
70 1 3.1850308081796035 12.448965513998465 4.177679425943269 2 -1 0
72 2 4.082509621803661 12.07694963879745 4.208560386758536 2 -1 0
136 1 0.06895158498450912 11.397123275974929 0.9978641856548659 0 0 4
11 2 2.1437679576105064 8.799277766706204 2.8848168852718774 0 1 3
248 2 1.5014491016979932 11.81398741280694 0.24010685354436903 -2 1 -2
227 2 5.846904560209838 11.368108865366048 0.7698632316237692 0 3 -1
314 2 7.865391192197523 11.282608423068746 1.2772812495565566 -2 1 0
228 2 6.118945599927831 11.140846739732655 2.3343132622438527 0 3 -1
226 1 6.230373174008623 10.751548637771887 1.409501901004071 0 3 -1
334 1 5.689663182296927 11.670510313644506 4.133274858718586 5 -3 -1
313 1 8.740222977645598 11.68551168725746 1.5594753887618007 -2 1 0
2 2 5.17746385921179 9.100467066354678 1.8552314690666767 1 -2 0
315 2 8.64594298771799 12.63329186487108 1.564266434261573 -2 1 0
78 2 1.4750390691883606 14.806919119130567 2.124506112856867 -1 0 1
325 1 1.9552816840879275 14.727121580053597 3.870778801280406 1 2 1
326 2 2.6200982435401268 15.451548056934403 3.7486903599856043 1 2 1
76 1 1.5568855670781812 14.918281112809613 1.1448720811508333 -1 0 1
327 2 2.489590824548907 13.886580300942901 3.9723499988822932 1 2 1
135 2 2.9548104748236415 15.697607874918306 0.686917803813781 2 4 3
170 2 0.5421844025940848 15.790764051032852 4.444765602219358 -2 -1 -1
133 1 3.8189050280982895 16.151774641561396 0.7779562916416464 2 4 3
77 2 0.7275637818345511 15.262384295794824 0.753216018763008 -1 0 1
473 2 4.285376345358162 17.014701096957427 3.717831489569588 3 1 2
472 1 3.575290284412825 17.068072409939248 4.444110584838275 3 1 2
471 2 3.2137646182978 17.594454688832872 0.2629679456750136 -1 0 2
333 2 5.057869555254055 16.570192347799647 1.93905784364668 -2 -4 0
332 2 6.299271997514883 16.521985655621442 2.8352865527589604 -2 -4 0
538 1 7.567069093132904 15.545988355753789 3.5423246111340863 2 2 0
491 2 8.080128043374735 14.741686989947262 2.1268350923648605 -2 -3 0
331 1 5.562632186543166 17.07206179370915 2.597867488093827 -2 -4 0
539 2 8.335017118568008 16.203643456813616 3.7275035559001886 2 2 0
490 1 8.331376989717622 14.344213623877717 1.2691591158813438 -2 -3 0
540 2 7.616230036395952 14.84084160028518 4.236699394009492 2 2 0
360 2 0.5110528411588378 10.251255127940569 4.651783210116834 0 -1 1
71 2 2.9360575338718373 12.347915059699984 5.109597104730781 2 -1 0
464 2 0.8182815398973254 9.775699788742006 6.817264314086912 1 4 2
463 1 1.3554824352108354 9.328396689856291 7.547180184844152 1 4 2
561 2 2.329386721681421 10.640640152373422 8.19920476438535 -5 1 1
559 1 2.492218181456913 11.565356729009563 8.46152670024524 -5 1 1
404 2 2.1176935069200566 12.736219531901716 7.2872652429393066 2 -3 1
465 2 0.7617975822063284 9.065193951756987 8.34263759508445 1 4 2
408 2 0.6257611419743403 13.207637305919366 5.810489339141515 -2 -3 5
113 2 3.9711351302554116 11.997842915345144 8.871015791415061 -1 -1 1
358 1 0.1858730145801526 10.423442978540649 5.525847504184253 0 -1 1
336 2 6.238101800431175 12.372189366434291 4.621339034793021 5 -3 -1
335 2 5.777031459393345 10.884816913792594 4.734415577215139 5 -3 -1
266 2 6.1374821611171715 10.146442063815117 7.68051591703133 -2 2 -1
265 1 6.605778433000732 10.450668070550332 8.519670016782218 -2 2 -1
505 1 5.554787056988154 9.291460010212035 6.057958912226782 -4 -2 -2
267 2 6.131118791571274 11.271311119181899 8.758309159029281 -2 2 -1
276 2 8.468793508282362 10.73019559509745 8.250355981876604 2 0 0
112 1 4.89412277483453 12.413228935536965 8.984274040111364 -1 -1 1
506 2 4.779953851307171 8.836018616860937 6.367103916434068 -4 -2 -2
403 1 2.0272327154655785 13.361649828584484 6.571547087377422 2 -3 1
405 2 2.6182743546174594 14.147494235765967 6.636557338693209 2 -3 1
520 1 3.720731295399294 15.429420762042055 6.766246098630805 1 -3 0
395 2 2.8478124359102943 16.56115232254202 7.48053608114764 1 2 2
521 2 3.761472506737633 15.949761975849253 5.939611878112577 1 -3 0
394 1 2.089359722071931 17.141104546662635 7.700057222781077 1 2 2
396 2 1.688605961165823 16.800365255937304 8.503231791169895 1 2 2
48 2 0.202952297405674 17.708777787152787 5.299054470997961 -1 2 2
522 2 4.650737414489049 15.192246592652358 6.863181563838341 1 -3 0
500 2 8.101360310986527 13.295566519112608 5.799501661644235 -3 -2 -1
450 2 8.101332422047241 16.925420327043575 8.705035509438689 1 -2 2
499 1 7.2906821918179805 13.466629650741583 5.251459307183769 -3 -2 -1
111 2 5.45238950196903 13.833343748280344 8.099143457693968 -2 -2 1
501 2 6.756928643879474 13.899075639795187 5.970229020341262 -3 -2 -1
109 1 6.120428330746185 14.392856465962451 7.629610380716584 -2 -2 1
110 2 6.267999794481069 15.253286416735275 8.126284996366113 -2 -2 1
361 1 6.223614668930098 16.742562188541505 8.970635502439897 -2 -1 -3
363 2 6.01336571707965 17.691821352944604 8.928964808861643 -2 -1 -3
177 2 0.061147534333805154 11.334807974863622 10.474784059018347 1 -5 0
152 2 0.7308542883986641 10.058089175326336 12.944382497371524 1 -1 -1
560 2 1.8476631793315317 11.837039899398826 9.150947425223327 -5 1 1
175 1 0.5043117334027181 12.115847146078693 10.020272001621594 1 -5 0
176 2 0.6598534078961783 12.761571341495596 10.792512877067217 1 -5 0
21 2 3.1490809282279844 10.140590394134247 13.20556603194325 -1 -1 -2
19 1 4.076618580203116 9.976376524358455 13.354473957050633 -1 -1 -2
20 2 4.292403369760055 9.36285404926816 12.666999231399211 -1 -1 -2
26 2 7.6019431640774675 8.842748002529381 11.139736870820554 3 3 2
27 2 6.939458376185175 9.225031637382067 9.709443131150922 3 3 2
114 2 5.00387987707416 12.564476367166609 9.915580975245641 -1 -1 1
455 2 5.815111158441005 12.342634563607392 12.455641315062893 0 3 -1
454 1 5.195983765349595 12.882693732479055 11.900621746627115 0 3 -1
546 2 7.563829811481028 10.704615494893888 13.001349120608149 -1 -3 -1
544 1 7.1508687778680615 11.443531310726614 13.537074631710166 -1 -3 -1
214 1 8.32837334150523 9.197615994359733 12.581782201443753 0 -2 1
422 2 3.8386221114281986 13.52762045488853 12.98206637033985 0 0 5
421 1 3.092507274133402 13.89091099743406 13.483049365553743 0 0 5
536 2 1.7538333501818784 13.964763131958199 12.09826170351758 0 -2 4
535 1 0.9523641652699686 14.102257672005383 11.595499264226936 0 -2 4
101 2 1.081333066647114 15.349278514850209 10.596297149727588 -1 2 1
100 1 0.9391804909612946 16.193585942124763 10.064704105318388 -1 2 1
537 2 0.3784445336373999 14.011780567764518 12.394187042476123 0 -2 4
102 2 0.6612174294469934 16.933501939099155 10.68413666314 -1 2 1
569 2 8.843124517434367 17.50177914209715 13.398778285512542 4 0 -1
341 2 8.750231003472068 14.177352862111166 13.228328988215313 -2 -2 -1
105 2 4.644460351734322 17.248066615829657 12.955025398333685 1 -2 -3
456 2 5.626594298243757 13.781312959875809 11.838205421383163 0 3 -1
362 2 6.193395002413657 16.382186033201055 9.884330270138115 -2 -1 -3
232 1 6.510013624103994 15.508617277186723 11.546902567245713 2 -3 -3
234 2 6.145097915336605 16.32441461931647 12.001536820004103 2 -3 -3
233 2 7.3694806681662195 15.238864041695061 11.997067673969745 2 -3 -3
340 1 8.935056859041769 14.64830704621326 12.386402996248886 -2 -2 -1
153 2 1.239266587934557 9.235412152550914 14.185110904627605 1 -1 -1
151 1 0.8949813715857312 10.152232132712193 13.921382693615813 1 -1 -1
247 1 2.212587921205481 12.316469743529376 17.71682829753627 -2 1 -3
87 2 1.3511016801319076 11.391496240501255 14.816634319608374 2 2 -2
85 1 1.7299449424346 12.232055473114679 15.067811438977206 2 2 -2
86 2 1.8998821608239085 12.281787678555776 16.052449959585484 2 2 -2
182 2 4.1793803188076515 12.388515593387178 17.373114433108988 -3 0 -2
423 2 2.7537142775219197 13.200992626717825 14.125029562722863 0 0 5
249 2 2.178153924303346 13.219367159600457 18.047856680860594 -2 1 -3
83 2 0.596087638438814 13.159223907938186 14.251329269001653 0 -1 1
263 2 5.877442703328358 9.083645661976965 16.811683383520887 3 1 1
447 2 4.983777328096321 9.940203820303642 14.88196250950808 2 0 -5
181 1 5.108336628626083 12.139288600574474 17.244265053249 -3 0 -2
446 2 5.286454616117116 10.916276014652125 16.017422038726178 2 0 -5
545 2 6.560982804886438 10.954508373737626 14.08899157538713 -1 -3 -1
445 1 5.7464711461976 10.200802872590605 15.501331163841105 2 0 -5
183 2 5.688494028825393 12.879291707150413 16.881090486186046 -3 0 -2
143 2 8.122578672855418 12.542885552482238 14.33539036562569 0 3 1
304 1 2.034005374536684 17.51047375576183 15.389485333343513 -2 -5 2
126 2 3.8078691500876665 15.415799651480095 13.992823193291322 -1 0 -1
345 2 0.44308275589400603 16.496280750091575 15.296849930728898 2 -2 1
124 1 4.123022898783435 16.310663470531537 14.284022778814299 -1 0 -1
125 2 3.2643623928823793 16.728905219369494 14.54925966661985 -1 0 -1
134 2 4.281203094092862 16.13690666763767 17.851877480571172 2 4 2
128 2 6.3752011969779705 15.077310672082422 16.657877510568674 3 1 0
302 2 5.939231810221337 17.121620576018568 16.735963799526115 2 -3 -3
129 2 7.4614601333251835 14.360992437287928 17.44537385717151 3 1 0
142 1 8.52412035696917 13.372129771717889 14.667017189254347 0 3 1
144 2 8.048148470567648 13.70482527380979 15.43838858339748 0 3 1
303 2 4.91768911362576 16.26161385839738 15.686986272501445 2 -3 -3
301 1 5.337982438759409 16.368009512556462 16.602153218332177 2 -3 -3
127 1 6.845587860823921 14.202878182464417 16.766227155084167 3 1 0
346 1 9.856390846158812 3.450512911020828 3.888630553146647 -1 0 0
372 2 11.657176434236339 3.663160370601788 4.117578629540741 3 3 -3
370 1 12.502381785093073 4.127869898197921 4.233046047296333 3 3 -3
60 2 13.355959412301958 3.4554301088906403 2.780320016990506 1 -1 0
347 2 9.554427437775846 4.237830050356413 3.412598925288516 -1 0 0
270 2 9.289263226619862 0.044813558352045674 3.2730534981510515 -1 2 3
512 2 9.312278128513803 2.1223543331113572 2.9849424880486706 0 0 2
140 2 13.34542172616055 1.5631659288220292 0.9046419684301235 2 -1 -6
139 1 13.459149627506662 0.9613051848722208 0.13491932225791814 2 -1 -6
256 1 17.076282227988177 0.41034002878674825 2.5271816925343717 0 -4 -1
58 1 13.860557941980876 2.93299898280973 2.081086012294434 1 -1 0
59 2 14.564880872737284 2.5452614456664393 2.5642287165212956 1 -1 0
352 1 15.82447227959006 2.2491599644043205 4.171742581666944 -1 6 0
354 2 16.489364252065023 1.5807382815438213 3.8612988241564206 -1 6 0
353 2 16.358642845417016 2.9983113693392918 4.408332109930892 -1 6 0
80 2 13.97124016567942 4.0523708944656756 0.2958011644127098 -2 2 -1
258 2 16.285093446831986 0.2004450418816969 1.9658514702989296 0 -4 -1
300 2 11.916467905961616 7.051091263903451 2.937864541324852 2 3 -3
298 1 12.547105290258147 6.655710875278958 3.5184230844200153 2 3 -3
34 1 10.618264475620448 7.745297992346287 1.984406893719361 0 0 -2
36 2 10.742724897868104 7.807475879932248 0.9758000121966504 0 0 -2
371 2 12.40224339260792 5.064870358767555 3.986715769522484 3 3 -3
186 2 9.64409286351664 6.282763877367123 2.177758851704383 -3 -4 1
299 2 12.537120442136235 7.264121739437363 4.373971622264845 2 3 -3
35 2 10.258116113314786 8.600275545181969 2.306055278784196 0 0 -2
8 2 9.437990076679442 4.663078278812032 0.3789198562381699 -1 3 -1
184 1 9.160968245983419 5.381759547012002 2.232224691118051 -3 -4 1
558 2 13.862973879541851 6.721216236402677 2.528461334921691 2 -1 -1
443 2 14.327502158112152 8.128696794659527 1.0050645343673597 1 -1 -1
557 2 14.549407426915234 6.181383364412752 1.1432997951889965 2 -1 -1
556 1 14.647342496203823 6.79761157467774 1.8630870283478176 2 -1 -1
431 2 16.022921332246668 6.512553648651873 2.7993957596062686 2 -1 -1
430 1 16.772086693705326 6.527830773305647 3.524217373906424 2 -1 -1
380 2 16.573572913672873 7.626640168014887 4.606355338304896 1 1 -1
543 2 17.128573823767976 5.2736358579190385 4.511024115561107 -2 2 3
432 2 17.53351051279364 6.438694752014368 2.9467636705396463 2 -1 -1
348 2 9.439032104080432 3.4891664482887395 4.7694541768166205 -1 0 0
437 2 9.600278077895632 -0.09090431751126801 5.508388844402265 1 2 0
436 1 9.665046706101755 0.42535697439349507 6.360478823208193 1 2 0
168 2 11.557531716229521 0.09492740210676151 6.89410360016784 -5 1 -3
166 1 12.416905614367765 0.11646170062683889 7.283295571938532 -5 1 -3
167 2 13.08064013150336 0.6677894501146732 6.802065199916728 -5 1 -3
309 2 12.582156941721177 0.8047617904346588 8.687982163251618 -3 0 2
23 2 12.65266363890511 4.113200987655604 7.98416223412209 -1 -2 2
24 2 12.31164136244434 3.0277976398017987 9.054250094904347 -1 -2 2
438 2 9.43218619127533 -0.20611239820158428 7.064716758637834 1 2 0
22 1 11.98522104823699 3.9041322784686 8.695474387795901 -1 -2 2
29 2 10.35793105373014 4.159848052930012 8.405587803929524 3 1 -1
30 2 9.008974510896923 3.9022415426585964 7.514357015680448 3 1 -1
480 2 14.722599453405333 1.830313874458812 5.517983574019076 -4 -4 0
479 2 15.163065245744312 1.4932611682819221 6.965530749033323 -4 -4 0
478 1 14.358419758888436 1.6962566793355427 6.422699352133531 -4 -4 0
420 2 16.7727989790415 1.1872514317474623 8.344992226696062 -1 0 0
527 2 14.09794226830388 3.3088682632504924 6.630507059053886 -2 4 1
418 1 16.344706490923382 0.6525800427210873 7.607607908241912 -1 0 0
419 2 17.110418518680497 0.5731602979334964 6.961034626736217 -1 0 0
528 2 13.420272100943365 4.526208051180077 5.914358203455401 -2 4 1
28 1 9.465088893653904 4.464655112871241 8.201443271422695 3 1 -1
13 1 12.134605810913287 7.946354937696151 5.792890911442584 -2 0 -1
402 2 12.567827766103383 7.820665045198803 7.573549087257695 1 -3 -4
14 2 11.243473449350443 8.247849017421277 5.661293980727429 -2 0 -1
400 1 13.192541039126306 8.075506829197552 8.275723773656363 1 -3 -4
15 2 12.734521828054229 8.725423190165738 5.688166879385868 -2 0 -1
526 1 13.83916139017624 4.277621296887618 6.773733069500564 -2 4 1
541 1 17.44969582445069 4.474271804442259 4.979948585233762 -2 2 3
69 2 15.25327657513682 4.955719865106541 7.1323115438892035 -2 0 0
67 1 16.169879389547127 5.33385033559021 7.3284858822897405 -2 0 0
68 2 16.693373181513145 5.0367658097158445 6.522098403211282 -2 0 0
339 2 16.078980996848337 8.256456195380364 6.998700368283802 -1 2 2
338 2 15.794411803890732 6.874775884122272 7.676221699096454 -1 2 2
337 1 15.636361183145107 7.854697350354025 7.746537091092348 -1 2 2
401 2 14.106744546478707 7.921620075927592 7.944098389168172 1 -3 -4
551 2 16.99733740114533 8.138111558098505 9.099233392152593 0 -1 2
74 2 16.952364334883228 4.856402791706507 8.66560849742375 -1 4 6
379 1 16.31066176639959 8.438916845054253 5.173091089049233 1 1 -1
307 1 12.478049934171771 1.3268262053823394 9.597340126047138 -3 0 2
475 1 10.130438052000619 0.5412429802359586 10.627344520604256 -1 2 0
308 2 11.589017006783248 0.9746026121667478 9.927993905622149 -3 0 2
239 2 13.360749411548191 2.02275878138232 13.197340402039615 1 0 -2
477 2 10.049429699290673 0.09554441422917356 11.436146946453853 -1 2 0
287 2 9.301326330662755 4.153795192790106 11.589821524509613 2 0 -3
476 2 9.62451766903357 -0.007147737431219298 9.949983306260203 -1 2 0
203 2 13.459509569862146 1.8593239739631515 10.992812082596313 0 2 -1
435 2 17.573335093179093 2.829050713996667 9.285448771790547 -5 1 -1
433 1 17.91706473494537 1.8907676894255234 9.271438902117648 -5 1 -1
202 1 14.069160583689834 2.1612640996945593 11.679144385483948 0 2 -1
204 2 14.67344541644569 1.3840933061211795 11.702780849976286 0 2 -1
389 2 14.846711343496832 3.5760392562692314 11.233061657472044 -1 0 -1
93 2 16.3486049870826 -0.0907666322686615 11.806335827610097 1 0 -3
91 1 15.427874191808 -0.20477856964366126 12.095370542174651 1 0 -3
288 2 10.00063114439849 4.593662595376812 12.968761701562514 2 0 -3
518 2 12.680418570410962 5.231142719476634 9.388945023407917 1 1 0
368 2 12.65719789565722 6.696179087375 11.484608418465433 1 -2 -1
367 1 12.461682128535449 6.94197514809517 12.39861373291819 1 -2 -1
6 2 12.073635954128045 5.496324185060902 13.354168427540047 0 0 4
517 1 13.132982582315131 6.036939254964072 9.837119377973051 1 1 0
286 1 9.213159709365277 4.631422376429423 12.451492531399955 2 0 -3
369 2 13.182811623298488 7.45650530907422 12.87815860150634 1 -2 -1
519 2 12.968694888860911 6.808005149882716 9.185356329259145 1 1 0
18 2 11.33281446398454 8.288804557715919 12.018094343698188 1 2 0
550 1 17.836474214646135 8.312590637036735 9.580826596884089 0 -1 2
199 1 15.784272135446273 5.841025364116647 13.480106399732147 1 2 -1
388 1 15.197864683558983 4.446060612683344 11.067157501969806 -1 0 -1
565 1 14.73079929544478 8.236722613001904 13.395923396579681 3 1 1
75 2 16.52941443925827 4.510140504793012 10.06733479820508 -1 4 6
73 1 17.333779459456753 4.449060399303374 9.491024578775006 -1 4 6
200 2 15.485708341698507 5.3299328003853335 12.7415047652189 1 2 -1
390 2 14.483927353721228 4.978870217561654 10.680044266435898 -1 0 -1
201 2 15.40075913037754 6.716957836298701 13.44683736206431 1 2 -1
387 2 17.501992469257903 5.4380916449701555 13.356544874651336 -1 1 -1
141 2 12.47319890624289 0.8748931723293708 17.848010033061204 2 -1 -7
207 2 11.587526971697162 0.0509249256709898 15.785022060286831 -3 1 1
494 2 8.996642630283333 2.4752933098920202 17.600941248992022 -2 0 2
205 1 11.594853507509313 -0.011238284154340555 14.821063138623307 -3 1 1
118 1 11.241061086050784 0.21713995608324513 17.421373568140833 -3 5 -1
120 2 10.378579162540548 0.6541107052317909 17.60727033891635 -3 5 -1
206 2 12.005379994139115 0.8022301952635699 14.411893625656736 -3 1 1
238 1 12.964698208177905 2.2051861076899333 14.097242076329566 1 0 -2
5 2 12.312618034730743 4.004794353527054 13.739358055438386 0 0 4
375 2 17.76844025101719 2.347144360104663 17.12406366455826 -2 -2 0
373 1 17.273532230894123 2.414251011787723 16.290500616755093 -2 -2 0
240 2 13.798892629589012 2.1297388202307954 14.699299329226927 1 0 -2
374 2 16.89124624165366 3.317057786474569 16.22459551408468 -2 -2 0
54 2 14.29662868305922 1.1934876681301778 16.629623554801448 3 1 0
53 2 15.649919144706345 1.7155247330226073 16.05414711684386 3 1 0
52 1 14.758210968322437 1.4651759739982944 15.794818074427784 3 1 0
243 2 15.014676672021533 -0.09149127741769003 15.087324755155137 0 1 -4
179 2 11.024124924452398 8.550196079118715 17.037401385143543 -1 -5 -2
7 1 9.54230326098092 4.343824362944594 17.391431779171054 -1 3 -2
51 2 8.974782469748744 7.031371593167223 16.957342645314494 -2 -1 0
441 2 11.791400587253998 5.1740094985660186 15.641606495513416 -1 1 -3
4 1 11.691578784874016 4.742461428344387 13.870309487166285 0 0 4
365 2 12.99610501713127 7.88744214887252 15.778643901195288 -1 1 0
439 1 11.789238645067547 5.49982331048487 16.529019359142936 -1 1 -3
81 2 13.180284039248004 5.010493663037803 17.36589174783717 -2 2 -2
178 1 10.68136118910924 7.734023060114599 17.38996596153848 -1 -5 -2
440 2 10.962897693721962 5.099064089827199 16.88440799753346 -1 1 -3
180 2 11.275725429766185 7.009153519923185 17.04797473668487 -1 -5 -2
229 1 16.094670743858103 4.987543555348771 16.04323962061911 -3 -1 1
231 2 15.284279982255786 5.007959082307841 16.59057694875591 -3 -1 1
414 2 17.345424063300285 6.300052674080851 16.7623531680813 -1 -1 -4
412 1 17.8695675463711 6.966580913920826 17.177320218876257 -1 -1 -4
79 1 14.070875431131084 4.863865043561412 17.763513982861852 -2 2 -2
377 2 17.080706544865457 8.54458044334591 17.660894135875786 0 -3 4
230 2 15.950587980922174 5.380829264012759 15.164833068796852 -3 -1 1
193 1 12.555867902371778 11.099489046685836 3.4604158020752753 3 1 2
42 2 10.98819568212436 10.354990880077953 3.3403988748634377 -2 -3 0
40 1 10.018254998824803 10.054058421612043 3.375873231034522 -2 -3 0
194 2 12.741731776516572 10.841184465346792 2.5051174715136306 3 1 2