LAMMPS data file via write_data, version 15 Apr 2020, timestep = 3628000

2016 atoms
2 atom types

0.0000000000000000e+00 1.82703408e+01 xlo xhi
-1.1278878308347657e+00 4.5598821836829799e+01 ylo yhi
0.0000000000000000e+00 1.89738465e+01 zlo zhi
-1.69855086e-03  -6.77290219e+00  -8.74268629e-04 xy xz yz

Masses

1 16
2 2

Atoms # atomic

80 2 1.3697305260905623e+01 9.1946513337035221e+00 1.1880367140225298e+01 -2 0 0
498 2 1.3623690611709984e+01 6.0393514070285201e+00 6.4632468358587278e+00 -3 0 2
716 2 9.3832782124014997e+00 4.6216660301703598e+00 1.5780922601085422e+01 1 0 4
400 1 -2.9830708333832257e+00 5.2762091520585468e+00 1.7844245809750912e+01 3 0 2
326 2 1.0359002923785290e+01 3.9923594592400953e+00 6.7707374770273621e+00 1 0 3
151 1 1.9965348880506517e+00 7.0718263602168872e+00 8.8496815278414935e+00 2 0 1
649 1 -1.3783874099744298e+00 1.9773816867741267e-02 7.2309632193925975e+00 0 0 -3
733 1 1.6603393880557844e+00 -2.7848145907808786e-01 1.9218001255588129e+00 1 0 4
647 2 5.1052719575034100e-01 1.8021902655165483e+00 1.6045976543456437e+01 -2 0 2
600 2 3.9120661281116016e+00 1.8568315996163740e+00 3.0534636716070476e+00 -1 0 4
546 2 3.9265116893361318e-01 -6.1522291735812917e-02 6.8571064671521125e+00 0 0 2
544 1 1.3074908194425854e+00 -4.2460333220102431e-01 6.7066530900963750e+00 0 0 2
403 1 3.3329943842854082e-01 2.0571994285997448e+00 5.3745171128969327e+00 1 0 0
355 1 -4.7716034448855993e+00 -3.4741883990690281e-01 1.6339507534751224e+01 -1 0 1
562 1 1.6247707023606253e+01 7.7365618145034691e+00 5.4409054340138618e-01 -2 0 1
89 2 1.0712344702687659e+01 1.6554406990777712e+00 1.3167979836365561e+01 -4 0 -1
228 2 1.1821141533757453e+01 2.9522375936411036e+00 9.7798935454547404e+00 1 0 0
879 2 4.8046102314646983e+00 2.7014811222341679e+00 1.5446333160887544e+01 0 0 2
226 1 1.0898684769257706e+01 2.9809618846040324e+00 1.0193580730962610e+01 1 0 0
52 1 3.9839412832268719e+00 3.3111709242194092e+00 2.2273664175294292e+00 1 0 4
305 2 7.3447546603872578e+00 -9.9766045067855691e-02 4.1767557733423279e+00 1 0 1
141 2 4.8604529945171899e+00 1.9873317495579523e-01 4.4621085698927949e+00 -4 0 3
68 2 1.1820679433101649e+01 2.6420091578397833e+00 1.6797151251305852e+01 0 0 3
33 2 9.9121972864556120e+00 2.6093029413139353e+00 1.6024933042270195e+00 1 0 0
82 1 7.3080417145469578e+00 -6.1646028658912067e-01 1.6300316815685875e+01 0 0 -2
758 2 1.0568944032529899e+01 7.0346691496541460e+00 3.0190046505418220e+00 -5 0 -1
759 2 1.1368415443146542e+01 7.0537737947132548e+00 1.6451763724055408e+00 -5 0 -1
495 2 -3.1595627075371713e-01 1.6784274559187295e-03 1.8638788354768263e+01 0 0 1
638 2 5.2629958118685858e+00 2.1781543999816404e+00 1.7793767401509552e+01 2 0 3
950 2 1.0663266471448702e+01 6.7373806994516539e-01 1.8534094910835460e+01 2 0 3
568 1 2.4083239992251166e+00 5.6891403494220425e+00 1.1171399748376892e+01 -1 0 -2
894 2 -1.6458166236360166e+00 -7.9949804843122418e-01 1.2754011439919559e+01 -1 0 -1
138 2 -1.1601303689555342e-01 8.7951527405201659e+00 7.2163345740144207e+00 -2 0 2
941 2 1.0410996464598634e+01 7.5562456698439657e+00 1.2641202946408740e+01 2 0 5
379 1 2.0402048414994236e+00 1.7111175180453797e-02 1.0248769521583828e+01 2 0 3
327 2 1.1511674719069440e+01 4.9241210142835596e+00 7.2465608590737602e+00 1 0 3
650 2 -1.3336608328285380e+00 -1.0126791488071962e-01 8.1631961679050953e+00 0 0 -3
637 1 5.4714871949358352e+00 2.0108550553304703e+00 1.8732576198336346e+01 2 0 3
159 2 1.9254776963550291e+00 8.9324563258205245e+00 9.7148284109470708e+00 1 0 0
570 2 3.2917739025082637e+00 5.3547338655168684e+00 1.1089535029549904e+01 -1 0 -2
471 2 1.2554224940449055e+01 4.3416439182671351e-01 1.3517500223633634e+01 -3 0 1
565 1 9.6865296468026330e+00 1.0075751536659093e+01 1.5539874407561303e+01 -2 0 -2
715 1 9.2687395446003897e+00 5.1952120692765362e+00 1.6606971278380531e+01 1 0 4
321 2 9.8629572759750701e+00 2.7215156954312212e+00 3.9413349281583363e+00 -1 0 1
158 2 2.0032676940277354e+00 9.5663167963956344e+00 1.1124041714217340e+01 1 0 0
693 2 7.6207617975432385e-01 2.4852735065613270e+00 1.2495968725114402e+01 -1 0 1
227 2 1.0429073081948307e+01 2.1576591858382419e+00 9.9521644027955940e+00 1 0 0
639 2 1.1341779953840959e+01 2.1027057116771783e+00 1.8733563326569694e-01 1 0 4
335 2 3.1342832451761566e+00 -2.7189265938925178e-01 1.3695929063642341e+01 -2 0 2
920 2 8.6209945378440693e+00 -1.0885447994030437e+00 2.2336611513847764e+00 -2 0 -2
954 2 6.9482029849224718e+00 8.3743276109575060e+00 2.1004242697695461e+00 -1 0 4
103 1 1.1211574835337242e+01 -4.3256066558338313e-01 2.1691949637707846e+00 0 0 2
893 2 -5.8741413581629986e-01 3.9832878413691808e-01 1.2544217362689510e+01 -1 0 -1
131 2 1.0955465647702155e+01 -9.9308834274821911e-01 1.3122371111347745e+01 -3 0 -2
790 1 3.9682128975112176e+00 3.1977373868253167e-02 1.6588289326053268e+01 1 0 3
220 1 -1.7463713187553820e+00 4.0316537564009849e+00 1.4543819180431615e+01 2 0 0
1084 1 1.3014392150868607e+01 8.3480262226774187e+00 3.4897796654630899e+00 -1 0 0
65 2 6.9045747828214052e+00 6.5478056611522661e-01 1.0816736900072470e+01 -2 0 2
810 2 1.2200287589419696e+01 5.3380948080496795e+00 1.6975224659123157e+01 0 0 1
436 1 3.5820945215505664e+00 7.3569823797969160e+00 1.9904372986224528e+00 0 0 4
91 1 1.1597093473532631e+01 7.7050742307659732e+00 9.3923769700419548e+00 4 0 1
104 2 1.1858869337461529e+01 7.4019119319820081e-02 2.6599997266855628e+00 0 0 2
707 2 7.1069624899036237e+00 6.1910174875144799e+00 1.4338735355088259e+01 2 0 3
616 1 1.0910781951916796e+01 6.3993552490172334e+00 4.7061060586312777e+00 -1 0 1
769 1 2.5430367406939300e+00 8.8199722117298442e+00 1.8662825939311578e+01 2 0 4
989 2 1.3655625375139721e+01 3.1358466160506788e+00 1.0138478383959443e+01 3 0 2
63 2 7.8494817061146307e+00 7.9415045109457854e+00 1.3176991598316549e+01 1 0 3
967 1 7.7126778724311702e+00 -8.5634713068818802e-01 1.1720373065855309e+01 0 0 4
646 1 -3.2562870577482883e-01 1.7342922631093658e+00 1.5518641263583914e+01 -2 0 2
183 2 1.2093826572026749e+01 5.7574145134409296e+00 3.5935445220877753e+00 1 0 5
282 2 5.3434202275888945e+00 5.9480454529918001e+00 1.1937675149955126e+01 -1 0 1
88 1 1.0615613511092342e+01 2.6239598249109588e+00 1.2953492350046650e+01 -4 0 -1
749 2 1.2158578643910500e-01 7.1337139660753071e+00 9.8330453729454064e+00 0 0 1
1082 2 -1.5670658221126290e+00 1.0041970954812854e+01 1.4950238870614495e+01 0 0 -1
700 1 7.1932693384292410e+00 3.3285978600622892e+00 1.1463018118177606e+01 3 0 2
734 2 1.1001179220697026e+00 5.2001799284107819e-01 1.7721564306308157e+00 1 0 4
819 2 1.5983674942265955e+01 1.5447552892415506e-01 3.8342080493824207e+00 -1 0 -1
272 2 1.5131005700859889e+01 4.9429130056819410e+00 5.4170514717063849e+00 -3 0 1
150 2 9.1043418558135674e+00 9.6605829510916301e+00 8.5888425665200572e+00 1 0 -2
494 2 7.8234345950184485e+00 -6.4621920708982517e-01 3.4241617382170034e-02 0 0 2
69 2 1.2067617747748045e+01 1.0859023320485206e+00 1.6537038163617659e+01 0 0 3
86 2 9.0540474313736077e+00 9.2454547140625731e+00 5.8891073977839037e+00 3 0 4
219 2 1.0930029990788716e+01 3.1230044547522162e-01 6.6244812222730944e+00 -1 0 3
951 2 9.1719863445549468e+00 3.0258404427659391e-01 1.8651768408321225e+01 2 0 3
521 2 -3.5663046499472100e+00 8.9463692125449708e+00 1.6376638896289766e+01 1 0 -1
168 2 1.3415312172840284e+01 2.3880633305697692e+00 3.1621355766778119e+00 1 0 2
110 2 -3.8880299066994457e+00 1.4667425481690048e+00 1.5501756319638870e+01 -3 0 3
267 2 1.5423744665200365e+01 9.1602459667437426e+00 5.1305383673365474e+00 0 0 0
1006 1 -1.0742022472783228e+00 8.5908332917547892e+00 4.3064321637612153e+00 0 0 1
968 2 8.4714795826623650e+00 -4.7759518633097819e-01 1.2152156549191426e+01 0 0 4
984 2 1.4458977068350178e+01 -1.0360396878600977e+00 1.4258685915067995e+00 1 0 5
440 2 4.3597929914245768e+00 6.9365158387955503e+00 1.6682573861841217e+01 3 0 2
269 2 3.2482714593307751e+00 2.9023226845357657e+00 1.3085017070123987e+01 2 0 1
218 2 1.0326615963138002e+01 -1.0369527108042944e+00 5.9991131174611754e+00 -1 0 3
71 2 2.9200659977032211e+00 6.6799978426571460e+00 5.6835686730597095e+00 3 0 3
351 2 4.5992617759806187e+00 5.4914868077992889e+00 5.1109206786149519e+00 0 0 3
415 1 6.8619107195219096e+00 9.4348801378702518e+00 1.7493150463393867e+01 0 0 1
542 2 1.2342890985700745e+00 -8.2734145639896106e-01 5.1512709080762340e+00 0 0 2
591 2 -4.7046460491208641e+00 2.3518797713111508e+00 1.8809690392383455e+01 -3 0 -1
489 2 8.0668245757952270e+00 1.2618305464975559e+00 9.1746082352094884e+00 -6 0 -5
833 2 5.3891656900722422e+00 1.1319724707173959e+00 1.2965933365965838e+00 0 0 4
659 2 1.2414483830642526e+01 1.0022874107096694e+01 3.5466732959831493e+00 0 0 0
743 2 4.0523062918322221e+00 1.4623512263341598e+00 1.2111470855169452e+01 1 0 -1
334 1 2.2300481506865450e+00 -5.6089156551974095e-01 1.3678316928171629e+01 -2 0 2
683 2 5.4977233172961322e+00 6.6665971339717767e-01 1.3421189251104019e+01 3 0 -1
205 1 -5.9889204009684072e-01 6.7269184173090792e+00 1.8189590544051939e+01 -2 0 0
163 1 6.0601414418562811e+00 3.8073679659044712e+00 8.2824546344301453e+00 -3 0 0
838 1 4.5633560085034581e+00 -5.8327922497369211e-01 9.2138041402523339e+00 1 0 -3
231 2 -2.3023589564044071e+00 7.0029459489122718e+00 8.7130794731524510e+00 2 0 2
181 1 1.2646653255333078e+01 5.4428342493863573e+00 2.8418293025735251e+00 1 0 4
651 2 -1.6291661310988474e+00 -7.8782554889651268e-01 6.7512556533996690e+00 0 0 -3
735 2 1.1997554387267608e+00 -7.2357331071876652e-01 2.6904410767730949e+00 1 0 4
468 2 6.3840876239164075e+00 7.4367653411500942e+00 4.0785731592099612e+00 4 0 2
942 2 1.0074628799041950e+01 6.0447327430606625e+00 1.3147310486964781e+01 2 0 5
490 1 5.3331370933655844e+00 5.4440440196178823e+00 2.0486604108571309e+00 1 0 4
252 2 8.7064409281349420e+00 2.3358511378331066e+00 1.6827956206708990e+01 2 0 4
469 1 -4.7537448536773885e+00 5.1203625151627929e-01 1.3305775082626853e+01 -1 0 1
55 1 8.8587177424218133e+00 2.9348933306957576e+00 6.7781877274522815e+00 1 0 1
493 1 6.2796975777913921e-01 -8.3920706972076431e-02 1.8342516493377143e+01 0 0 1
265 1 1.4549955910413900e+01 9.4423665138844495e+00 5.2658313075090737e+00 0 0 -1
853 1 -2.1070857825989178e+00 -1.9001162215045220e-02 1.6220205833005227e+01 1 0 0
407 2 1.1799140170548590e+00 4.2973630137096590e+00 1.1173482448480332e+01 -1 0 2
802 1 1.4707528828055974e+01 -7.6486798158177449e-01 4.4193436534749804e+00 -1 0 1
680 2 2.8143739412304800e+00 3.1654815252083495e+00 1.7481775845477834e+01 2 0 3
864 2 -4.7063870961173127e-01 8.7192429062910950e+00 1.8036564489078422e+01 -4 0 2
845 2 -1.8304946333761283e+00 3.8777599289838136e+00 1.8084901761687803e+01 0 0 1
109 1 -3.8872924065943719e+00 2.3562116617886617e+00 1.5858550348398733e+01 -3 0 3
12 2 5.9744654728976512e+00 5.4885062857842621e+00 1.6531026060570618e+01 -1 0 -4
581 2 7.2123959379566553e+00 -1.0594659654797489e-01 1.8172989394094518e+01 -2 0 2
766 1 1.3988540612028334e+01 2.6208654124503452e+00 1.1756427863667000e+01 -2 0 1
208 1 2.7998519911286239e+00 8.1482415494728322e+00 1.2472810089879522e+01 3 0 3
304 1 8.1208989387721804e+00 9.8121803707760691e-02 3.6333076443546846e+00 1 0 1
524 2 2.2759089141697006e+00 8.9913121233029116e+00 5.8939079639972931e+00 0 0 1
501 2 7.1583589376346737e+00 8.0440759936374366e+00 1.1100559845428336e+01 -1 0 2
487 1 8.9517059611970566e+00 1.5369784295970832e+00 8.9236988714529932e+00 -5 0 -5
380 2 1.8797962022275172e+00 -8.5471806025535857e-01 1.0650687503232389e+01 2 0 3
325 1 1.1139483378568322e+01 4.4550639317793479e+00 6.4531380134219933e+00 1 0 3
239 2 1.4600592277427991e+01 9.0672252627363132e+00 8.5660476560246703e+00 -1 0 1
580 1 1.4186617705813653e+01 3.4215106024388464e-01 1.0511327224008228e-01 -2 0 3
31 1 9.9363031806009463e+00 1.7507547749851584e+00 1.0902611438827974e+00 1 0 0
111 2 -4.4649974342374659e+00 2.8670078881606424e+00 1.5257662723605209e+01 -3 0 3
15 2 1.5331464837402766e+00 4.0720433062782986e+00 7.6309830545714616e+00 2 0 1
311 2 -1.9933518917170820e+00 4.3993435415709596e+00 1.2539769453450711e+01 1 0 3
108 2 -3.4535835490884286e+00 6.4784348599468338e+00 1.4768577227751587e+01 1 0 1
736 1 1.2874539892793640e+01 9.6774049070207147e-01 3.7430155841925190e+00 -2 0 1
780 2 2.8058778109150371e+00 1.1815904442734824e+00 1.6813865760990957e+01 -1 0 2
466 1 6.5398189393614290e+00 8.3285042446059929e+00 3.7924881338058438e+00 4 0 2
856 1 5.0708861206438982e+00 8.8693318670032166e+00 1.4065820524545517e+01 -3 0 3
439 1 4.2083568819505244e+00 7.8619355291066615e+00 1.6335988000495401e+01 3 0 2
478 1 -5.8188987478237308e-02 6.6263182180232247e+00 1.2813624667225387e+01 4 0 2
259 1 1.2788728728165999e+01 4.1329111810446797e+00 1.4139868249805735e+01 -5 0 1
373 1 1.5887201515513789e+00 4.4404701677731957e+00 3.3146326930277135e+00 1 0 1
93 2 1.0684426750096407e+01 8.0954785883149576e+00 9.4719695292570041e+00 4 0 1
480 2 -5.1970487996714532e-01 7.2303126187209354e+00 1.3427226895968776e+01 4 0 2
18 2 8.5243378311616453e+00 -3.3598605775565826e-01 6.7789618875819624e+00 0 0 3
217 1 1.0278070201369873e+01 -4.0910297503717763e-01 6.7263806616322981e+00 -1 0 3
290 2 1.0922433702880685e+00 5.5633739309056818e+00 1.5953940954140444e+01 1 0 0
791 2 4.7955354722202763e+00 5.4620483027973665e-01 1.6528419693867090e+01 1 0 2
850 1 4.9166898279087459e+00 7.1047832112542064e+00 8.4730813312304658e+00 -1 0 2
767 2 -3.6875506927388058e+00 3.2846835041427855e+00 1.2137932475114557e+01 -1 0 1
1998 2 1.4163369569482750e+01 2.9777870389479144e+00 8.6393975332909108e+00 3 0 2
182 2 1.3062347609660446e+01 4.6504249378886025e+00 3.2056451370151597e+00 1 0 4
164 2 5.3785639972649761e+00 3.8522483473924600e+00 8.9587598131722732e+00 -3 0 0
79 1 1.2808892276325334e+01 9.3233638818907068e+00 1.1594018223412775e+01 -2 0 0
886 1 -1.0781487582799434e+00 8.3253142618835003e+00 1.4723796734245337e+01 0 0 2
484 1 6.0195567168811215e-01 2.5777516183134215e+00 1.2976852186318981e+00 1 0 3
807 2 1.3004337341289224e+01 4.8704129743980964e+00 1.2304280073425630e+01 6 0 5
310 1 -2.1963378302148282e+00 4.3468008475410951e+00 1.1613674456544407e+01 1 0 3
857 2 5.1529835572843874e+00 9.8099799498038696e+00 1.4251172614609784e+01 -3 0 3
674 2 -3.2132525501216014e-01 3.2454359186846169e+00 6.9675161916670785e+00 0 0 2
895 1 1.2985847932785946e+01 7.1989658067224980e+00 1.4352194384761601e+01 0 0 3
92 2 1.2212951775246104e+01 8.2286525568060735e+00 9.9777533599871315e+00 4 0 1
411 2 1.2998117102447505e+01 4.8192015691902679e+00 8.6896622594372790e+00 -3 0 3
270 2 3.8236439492205534e+00 4.2293319945738066e+00 1.3687567467912341e+01 2 0 1
994 1 1.3658724803584953e+01 -4.6125317728830240e-01 9.1896025620697745e+00 2 0 2
312 2 -2.3300622342310886e+00 5.3276281149978688e+00 1.1457978176838619e+01 1 0 3
263 2 -3.0168845560164579e+00 7.1462518422303685e+00 1.0738847692316739e+01 1 0 1
349 1 5.4811254877350191e+00 5.1769628314372174e+00 4.7036456829040798e+00 0 0 2
474 2 8.2573202504452414e-01 5.5596794260565003e+00 1.5364046738108553e-01 2 0 5
50 2 1.1832876375760669e+01 2.5633547249397575e+00 6.5423120524731946e+00 1 0 3
762 2 7.9429813530966138e+00 2.0592984164535406e+00 1.4695138076921264e+01 2 0 4
360 2 9.7622764729502016e+00 9.9309904261958213e+00 1.2622925555168770e+01 -1 0 0
165 2 6.9195892304281585e+00 4.0743730900686348e+00 8.7173937687011627e+00 -3 0 0
222 2 -7.5821738871300060e-01 3.8744097633528032e+00 1.4510844929209927e+01 2 0 0
406 1 5.2793317140213158e-01 3.6161734971705890e+00 1.1264908169777733e+01 -1 0 2
703 1 1.5104587009009535e+01 2.3353298670827338e+00 7.3102755293975585e+00 -2 0 1
525 2 3.5879576498169516e+00 8.6708216534400542e+00 5.0894162384461570e+00 0 0 1
288 2 -9.5947864655698001e-01 5.3283220718983193e+00 7.4710115165546247e+00 -3 0 2
206 2 6.4535738963778213e+00 7.0300962305249861e+00 8.2502693246142081e-02 -2 0 1
742 1 3.2282901710902010e+00 1.8660263097730034e+00 1.1774924924587827e+01 1 0 -1
673 1 -8.2164652687170658e-02 3.8087095156467852e+00 7.6961635835872970e+00 0 0 2
356 2 -3.8196909149642417e+00 -1.2102439674023713e-01 1.6277509996637470e+01 -1 0 1
507 2 1.6686690708901260e+01 5.9229672457528908e+00 8.7083222608561150e-01 -1 0 1
276 2 3.1282075507461045e+00 1.6123269338644248e+00 5.7706043727244554e+00 -2 0 0
863 2 -9.7964907314085181e-01 9.8420141330822783e+00 1.7076297772914224e+01 -4 0 2
152 2 2.8716261009906918e+00 7.1029200113336248e+00 8.3615284272321517e+00 2 0 1
139 1 5.6069497918886411e+00 -4.2373314146817853e-01 4.5949090076665158e+00 -4 0 3
64 1 6.3344754678559090e+00 1.2082390555444107e+00 1.0247586954011076e+01 -2 0 2
952 1 7.1330461303539749e+00 7.9761122559490456e+00 1.2231280408712841e+00 -1 0 4
318 2 1.2246190512584539e+01 8.9847449993397621e+00 6.5311259192190878e+00 1 0 -2
854 2 -1.8951892114757189e+00 -5.1760750246591192e-01 1.7043062270480831e+01 1 0 0
545 2 1.9573268140799738e+00 3.3572187539615972e-01 6.8881895349189559e+00 0 0 2
760 1 7.1764566584190819e+00 1.9504721580872557e+00 1.4028307984356994e+01 2 0 4
757 1 1.0550198123036669e+01 7.3039633727124933e+00 2.0789668956327034e+00 -5 0 -1
540 2 9.5444640886805114e+00 9.5050259721767407e+00 2.5682376711361332e+00 2 0 6
744 2 2.8253485384685453e+00 1.1251651726441376e+00 1.1245040331113859e+01 1 0 -1
875 2 6.5603760591329836e+00 2.3645006624501788e+00 3.0665157032772052e+00 -2 0 4
281 2 5.8938152439377154e+00 4.4940931857891293e+00 1.1772011890954785e+01 -1 0 1
567 2 9.5706982699418166e+00 9.2842851173825913e+00 1.6155717591401128e+01 -2 0 -2
438 2 2.8153689440290508e+00 7.5064093874825240e+00 1.3960305801636297e+00 0 0 4
1003 1 8.0776020908439303e+00 5.1615610611176033e+00 5.4854295343166966e+00 3 0 0
738 2 1.2353714613942813e+01 1.2334878795023405e+00 4.4919018803971742e+00 -2 0 1
57 2 9.2395024626474900e+00 2.3803497202918349e+00 6.0625164137595684e+00 1 0 1
492 2 4.7358485197282514e+00 6.2399043572194417e+00 2.0128526855229891e+00 1 0 4
877 1 5.6258637425038653e+00 2.4993426767331592e+00 1.5967028000355606e+01 0 0 2
953 2 7.6890091530407734e+00 8.6142422638982818e+00 7.3641027083836486e-01 -1 0 4
876 2 7.0293208635247213e+00 2.7643846157394614e+00 1.5962173157463457e+00 -2 0 5
1672 1 1.5121008121164659e+00 8.3191448848832010e+00 1.5040920557066274e+01 1 0 0
242 2 9.2429138191538431e+00 4.4486808666510234e+00 2.4271341010787237e+00 1 0 0
54 2 3.1929940072364400e+00 3.7165528163728538e+00 2.5416345144617889e+00 1 0 4
203 2 5.9389914022873054e+00 6.6139859897211233e+00 1.8743577578047052e+01 -1 0 4
682 1 4.6995758627783770e+00 2.0862634777454914e-01 1.3120582088245950e+01 3 0 -1
648 2 -1.7556082776528648e-02 1.8755127538618503e+00 1.4596057688292577e+01 -2 0 2
852 2 5.0967629238103740e+00 6.1950576190883329e+00 8.1473697007496497e+00 -1 0 2
320 2 9.3514512457352126e+00 1.2295797267128901e+00 4.2328039403901947e+00 0 0 1
201 2 5.7679768561517086e+00 3.5726766227432982e+00 4.6844806943720911e+00 -2 0 0
589 1 -3.7377518160643088e+00 2.2692103817867655e+00 1.8648378463378890e+01 -3 0 -1
1086 2 1.3700724415092193e+01 8.3386773354799431e+00 4.1832288954224435e+00 -1 0 1
818 2 1.7051142248861456e+01 -5.1484005141685063e-01 3.0478318870835870e+00 -1 0 -1
1408 1 8.2033253352877509e+00 3.5031837469164264e+00 1.8400405837868743e+01 -1 1 -1
319 1 9.9867773459313778e+00 1.9321987371680165e+00 4.5182077564505674e+00 0 0 1
499 1 7.8831399556654453e+00 8.4239431056505083e+00 1.1557903594033224e+01 -1 0 2
1004 2 7.1879813256341860e+00 5.1543185538746270e+00 5.0201492062453443e+00 3 0 0
221 2 -2.1148404432342698e+00 3.1582441958435457e+00 1.4709719265462461e+01 2 0 0
404 2 8.2311001346782042e-01 2.6420773270223799e+00 4.7532372252813273e+00 1 0 0
1085 2 1.2772629004036693e+01 7.4885267556453652e+00 3.2055227043793635e+00 -1 0 0
491 2 4.8173612459473123e+00 4.6408053536404692e+00 2.1477882653499183e+00 1 0 4
842 2 1.7043555491497703e+01 5.6772902976418216e+00 2.7626242880266747e+00 0 0 1
913 1 8.0969372847183276e+00 5.4265927817762538e+00 2.4599408435961028e+00 -2 0 1
136 1 4.0381941005949251e-01 8.1495060339506225e+00 6.7026956690583939e+00 -2 0 2
556 1 8.0663188429569743e+00 6.5797752287067599e+00 8.4891304385223005e+00 1 0 7
563 2 1.6849442397336713e+01 8.3976058187921687e+00 9.8239070948761475e-01 -2 0 1
878 2 6.3204643065618153e+00 2.4424966469151626e+00 1.5194486590726475e+01 0 0 2
428 2 1.6470734002539579e+01 1.6365192029890512e+00 2.3519756144717521e+00 0 0 4
1673 2 1.8290527228402622e+00 7.5376597796255762e+00 1.5470055419782813e+01 1 0 0
1674 2 2.0721057426889189e+00 9.0491519865234462e+00 1.5413502682775491e+01 1 0 0
725 2 -4.9490288387610146e+00 8.7541710393173080e+00 1.4605264669484374e+01 2 0 3
887 2 -1.4243485556318625e-01 8.2575395449032225e+00 1.4905919626748004e+01 0 0 2
172 1 5.6998149908054039e+00 1.4003677018126734e+00 7.1466234828395363e+00 0 0 3
130 1 1.0961269714554348e+01 -2.7477871731322723e-01 1.3824223077686641e+01 -3 0 -2
174 2 6.0974064125383229e+00 2.1880393707896815e+00 7.5920395705832435e+00 0 0 3
656 2 9.1516417273956252e-01 8.2240497371601737e+00 3.8929270112766079e-01 3 0 3
306 2 7.7408147854043809e+00 7.9156626652477602e-01 2.9873467076941158e+00 1 0 1
723 2 4.6176819991749607e-02 2.3766093049528560e+00 1.0310156568295664e+01 4 0 4
106 1 -2.6766800635681389e+00 6.3329904917229509e+00 1.5290327733807409e+01 1 0 1
557 2 8.0607896805014008e+00 6.2647879847884544e+00 7.5798768739237099e+00 1 0 7
515 2 5.1889613705668953e+00 7.0308165491335011e+00 1.0103562582465390e+01 1 0 2
618 2 1.1071996489005141e+01 7.0454840863832082e+00 5.3666514910267722e+00 -1 0 1
832 1 4.9739639936291962e+00 4.6836034256566417e-01 7.3223815900445111e-01 0 0 4
523 1 2.9986874747825119e+00 8.3950759667092072e+00 5.7911832087123258e+00 0 0 1
261 2 1.2214765257584387e+01 3.5043980365962843e+00 1.3679320346428261e+01 -5 0 1
771 2 9.8705676936852562e+00 8.1530383476270583e+00 1.2172808298568021e-01 2 0 5
479 2 -1.5664704180361522e-01 6.9822806728857962e+00 1.1929532107770726e+01 4 0 2
708 2 6.1657076898747434e+00 5.0643723363149205e+00 1.3817276669380423e+01 2 0 4
148 1 9.2070427002372739e+00 8.7984854307941358e+00 9.1318526178464019e+00 1 0 -2
846 2 -1.1151111643566942e+00 3.1374454405088690e+00 1.6837785312333803e+01 0 0 1
722 2 -1.1506229237381262e+00 1.5251836071737044e+00 9.8541717941019407e+00 4 0 4
597 2 -2.0185851130652863e+00 1.0028845672981879e+01 1.1988546875555434e+01 1 0 4
526 1 1.7675047074576401e+01 9.7387332995433891e+00 1.5314094961808153e+00 -3 0 3
274 1 3.1404163683122390e+00 1.5237715517812758e+00 6.7234401127443810e+00 -2 0 0
101 2 5.1145382709766567e+00 1.0018972846834769e+01 3.5453409253795192e+00 2 0 2
516 2 4.9080365435583264e+00 8.2390323710324669e+00 1.1000422024792403e+01 1 0 2
679 1 3.2345331557593884e+00 4.0234142657321872e+00 1.7654873683227798e+01 1 0 3
137 2 9.2504507686987969e-01 7.7591400943250228e+00 7.4369312013089024e+00 -2 0 2
691 1 4.7675452819563890e-01 1.6667492985135817e+00 1.2909630819720716e+01 -1 0 1
204 2 1.3143774282148042e+01 6.4018310933461331e+00 1.1636588549937155e+00 -1 0 5
289 1 1.6368132010311243e+00 5.9843076473584356e+00 1.6684122127686642e+01 1 0 0
62 2 8.4350378694627821e+00 8.0730938312611524e+00 1.4554354568537828e+01 1 0 3
564 2 1.5330457775945678e+01 7.9924387209041718e+00 7.6662591405454750e-01 -2 0 1
11 2 4.7734821066543542e+00 4.9040037724439518e+00 1.7293973702246763e+01 -1 0 -4
961 1 8.9689934566486009e+00 7.7517040088159614e+00 1.6778370152073684e+01 1 0 0
704 2 1.5187695751957028e+01 3.0078260476670398e+00 6.6576666059003040e+00 -2 0 1
505 1 1.6947256782418808e+01 5.0088562977488298e+00 1.1419208533250993e+00 -1 0 1
569 2 2.4348969180912619e+00 6.4731494566914058e+00 1.1751885022802519e+01 -1 0 -2
855 2 -1.3472672194578923e+00 5.6013469892680745e-01 1.6008022639860574e+01 1 0 0
291 2 9.5737622793712074e-01 6.2841858882784347e+00 1.7352564657581798e+01 1 0 0
841 1 -9.1010503448827806e-01 5.9096862867968927e+00 3.6333100386217771e+00 1 0 1
721 1 -2.2764606926992048e-01 1.8367637292747641e+00 9.5586577630233727e+00 4 0 4
669 2 -3.2067750907906785e+00 1.5003580780451240e+00 1.0858719936513378e+01 0 0 2
229 1 -3.1427022568389100e+00 7.4226129485070551e+00 8.9556276362464260e+00 2 0 2
768 2 -4.4145566882967486e+00 1.8932256673633727e+00 1.2380664332649800e+01 -1 0 1
260 2 1.2245636340760589e+01 4.6039951023070662e+00 1.4821035679247000e+01 -5 0 1
1036 1 1.3831880430759005e+01 9.8213943688881855e+00 1.1700007258719756e+00 -1 0 0
200 2 6.0818346004914527e+00 2.1136671028398046e+00 5.4548673935596899e+00 -2 0 0
350 2 5.4498888555016514e+00 5.3368681912336262e+00 3.7581027420953581e+00 0 0 2
463 1 9.4696707091008836e-01 4.6042477147854832e+00 1.4319121832628037e+01 2 0 0
778 1 2.0157465947781787e+00 1.6827750357020261e+00 1.7042061311347151e+01 -1 0 2
51 2 1.3052134886560292e+01 1.6204453790571982e+00 6.7669468497913003e+00 1 0 3
359 2 1.1292655126040898e+01 9.5406681131381230e+00 1.2819354768750159e+01 -1 0 0
604 1 7.6465343049913370e+00 3.8178550924396957e+00 3.4283871400796367e-01 -2 0 3
590 2 -3.5713516782465513e+00 2.3064073945999675e+00 1.7695460009145247e+01 -3 0 -1
858 2 6.0387846018739317e+00 8.6616034223579099e+00 1.4092839492017101e+01 -3 0 3
268 1 3.2952120872150745e+00 3.4786874889256163e+00 1.3912476378671329e+01 2 0 1
706 1 6.8306625407204598e+00 5.2628518277768022e+00 1.4502598253695835e+01 2 0 4
464 2 1.9495143971969089e+00 4.3136357911174388e+00 1.4217201288781089e+01 2 0 0
806 2 1.1917735697108892e+01 5.8112428348964205e+00 1.1796144675141731e+01 7 0 5
914 2 7.3526740531688892e+00 5.0715322302172519e+00 2.0028965087107817e+00 -2 0 1
1005 2 8.7473038239668739e+00 5.2983843476601509e+00 4.8597073073660999e+00 3 0 0
132 2 1.0708967177295106e+01 -6.5135736787980480e-01 1.4696492650338225e+01 -3 0 -2
675 2 -4.4773776574956825e-01 3.2926565060973800e+00 8.4964054616860416e+00 0 0 2
287 2 -6.3269823633168687e-01 6.6085192274644653e+00 6.7111232513320473e+00 -3 0 2
737 2 1.3578496298877823e+01 2.9790951788349496e-01 4.0663205956004678e+00 -2 0 1
681 2 2.6391651949160124e+00 4.6743421668403018e+00 1.7271160782814455e+01 1 0 3
909 2 1.0359461210992292e+01 -8.6705331012921771e-03 9.5955823771410778e+00 3 0 5
374 2 2.0481869849116077e+00 4.9302591549705514e+00 4.0878204392607413e+00 1 0 1
84 2 7.8239659154706498e+00 1.7482179367225936e-01 1.6030686115532703e+01 0 0 -2
874 1 6.6859868614274935e+00 2.0107782749978602e+00 2.1440705752698208e+00 -2 0 5
844 1 -1.1120954775728515e+00 3.2699342377268410e+00 1.7776976743620697e+01 0 0 1
14 2 2.6370689083120724e+00 3.2302767309649347e+00 7.2378280068766214e+00 2 0 0
717 2 8.8181991303254605e+00 6.0408472103753805e+00 1.6481215205695918e+01 1 0 4
470 2 -4.5484586045925486e+00 -3.0426590345506577e-01 1.2760740621077989e+01 -1 0 1
770 2 2.9938757375648422e+00 8.7829808658527782e+00 1.7737406193047821e+01 2 0 4
582 2 1.3616018767958105e+01 1.0947512224969032e+00 1.4319897251141261e-01 -2 0 3
341 2 3.8246008802426017e+00 1.0164792744469048e+01 1.8944249364634306e+01 0 0 -1
1410 2 -3.0581973669266143e+00 5.5625479134558669e+00 1.6888452602627037e+01 3 0 2
605 2 1.6604417491833425e+00 4.1453852949066601e+00 1.8899043147456165e+01 -2 0 2
599 2 2.9523635127034913e+00 5.8381965701280114e-01 3.0828347548259196e+00 -1 0 4
839 2 3.6235532577979477e+00 -4.1623012857075203e-01 9.4121525730068250e+00 1 0 -3
67 1 1.1393117221472664e+01 1.8032663125837214e+00 1.6780518674881954e+01 0 0 3
748 1 -4.6972588241915370e-01 7.7429384313931298e+00 1.0251824476561335e+01 0 0 1
897 2 1.2395778273375628e+01 6.8441030025016003e+00 1.5008325151261831e+01 0 0 3
667 1 -2.5976634148873297e+00 8.5617222021102801e-01 1.0414035219466365e+01 0 0 2
514 1 5.3027893052389157e+00 7.3547924123787869e+00 1.1038646856811244e+01 1 0 2
1025 2 3.8157733316645062e+00 3.1766942590642984e+00 1.0467543950334088e+01 0 0 0
358 1 1.0391534108461784e+01 9.3234190375607380e+00 1.3132421465476190e+01 -1 0 0
61 1 7.6208219776391077e+00 7.8514816306321347e+00 1.4123459501703081e+01 1 0 3
750 2 -2.5079377764505617e-01 8.5784782389034415e+00 9.7872220785116273e+00 0 0 1
273 2 1.4995507031789540e+01 3.7502779275614913e+00 4.5516410867460548e+00 -3 0 1
199 1 6.0266954408020803e+00 2.6119816370590794e+00 4.5985985095178492e+00 -2 0 0
473 2 6.5914486994390098e-01 4.0320216080201350e+00 1.2268185640113595e-01 2 0 5
405 2 -2.8218948775764474e-02 1.4266469427127846e+00 4.7623561968236183e+00 1 0 0
805 1 1.2824684942058337e+01 5.4755311614154749e+00 1.1575402409996055e+01 7 0 5
963 2 8.1383947755924986e+00 8.0827439885714689e+00 1.7046826116239199e+01 1 0 0
988 1 1.3403431395834398e+01 3.2132358052943149e+00 9.2024266642961212e+00 3 0 2
488 2 8.9413833035771937e+00 2.2253566650885510e+00 8.2356742309809761e+00 -5 0 -5
250 1 8.8501550302057925e+00 1.9433114927589825e+00 1.5951089960987764e+01 2 0 4
53 2 3.6994134760055597e+00 3.1771695510840301e+00 1.2917546557980646e+00 1 0 4
598 1 3.6813238846050305e+00 1.0633351055565519e+00 3.5747377296391742e+00 -1 0 4
385 1 9.3400239801056451e+00 4.4881484155241420e+00 1.4191386471910079e+01 -1 0 1
962 2 9.4205779652414421e+00 7.7833937262845563e+00 1.7630564862024716e+01 1 0 0
657 2 -4.7671054107977051e+00 7.7778910948577398e+00 1.8365330987241503e+01 2 0 2
408 2 -3.3663958505089875e-01 4.1210989575957280e+00 1.1384530638260966e+01 -1 0 2
381 2 1.2356001061436910e+00 2.8743753916762338e-01 9.8012173145236456e+00 2 0 3
520 1 -3.6213669450610730e+00 8.4417285233659012e+00 1.7229865303275037e+01 1 0 -1
46 1 9.2477288535713100e+00 4.8806219730723130e+00 1.0342916384318835e+01 -1 0 4
809 2 1.0840201618464341e+01 5.7026191595099744e+00 1.6336289545948148e+01 0 0 1
275 2 4.1728335046163885e+00 1.4895934433930380e+00 6.8879524016125524e+00 -2 0 0
788 2 7.2120456215387572e+00 9.4989575953764422e+00 7.0193725293503055e+00 2 0 -1
251 2 9.8207324401550053e+00 1.8280930481280664e+00 1.5949814717821928e+01 2 0 4
566 2 9.9369456896904023e+00 9.7451901038757303e+00 1.4641348796196951e+01 -2 0 -2
997 1 4.6208665486097216e+00 1.0288720953305877e+01 1.0982446845673927e+01 1 0 2
497 2 1.4961168213556240e+01 6.7558836520625087e+00 6.3539353845271993e+00 -3 0 1