LAMMPS data file via write_data, version 3 Mar 2020, timestep = 0

2016 atoms
2 atom types

0.0000000000000000e+00 1.7923248267964990e+01 xlo xhi
-1.4087192916111597e+00 4.6404879268528958e+01 ylo yhi
0.0000000000000000e+00 1.9064167252212307e+01 zlo zhi
4.4379880369188066e-02 -6.6394386822522122e+00 -2.0765133472472996e-02 xy xz yz

Masses

1 16
2 2

Atoms # atomic

579 2 1.2854330739001467e+01 1.2508657088703581e+00 1.1535078702740191e+00 0 0 1
223 1 3.4245089133324758e-01 7.8285781777444772e+00 1.5105293980132743e+01 -2 0 -2
995 2 8.9258566378647970e+00 5.2207373880104004e+00 9.0732616673584570e+00 3 0 1
654 2 2.1789673223940804e+00 4.7568981913349049e+00 3.1843758140372529e+00 -1 0 0
394 1 9.7214217638542291e+00 6.8877706887383674e+00 2.5765864688895030e+00 -3 0 -3
578 2 5.5391138660263870e+00 9.2016554231387149e-01 1.8813342171241526e+01 0 0 0
929 2 -1.0041244899875670e+00 2.1497056367884428e+00 5.0822926549176799e+00 1 0 0
763 1 1.4263128017774063e+01 7.2820026231800554e+00 9.2672476455788768e+00 -4 0 -3
705 2 1.2227669797511830e+01 5.4137764665072545e+00 1.1019494651200530e+01 -3 0 -1
302 2 1.0121591234745486e+01 5.1781204475801692e+00 1.8157455666203064e+00 0 0 0
299 2 -2.3514203287400632e+00 4.4143858581379467e+00 1.7687983229477801e+01 -2 0 -2
829 1 -1.7948211767592470e-01 1.0088304360678467e+01 4.5666120504594225e+00 -3 0 0
150 2 4.4691040675954063e+00 6.9583483723507662e+00 1.7533458477790617e+01 -4 0 -1
406 1 2.5419597044373865e+00 2.6970578959214286e+00 9.5951747633142705e+00 -2 0 -2
685 1 1.2804592894426303e+00 -4.8081894862174390e-01 1.0293013360156360e+01 -3 0 1
596 2 3.8539072642692451e-01 6.0393607666212352e+00 4.1162607067808930e+00 3 0 -2
527 2 4.2505771617165964e+00 4.4344433503463687e-01 4.2037851588601800e+00 -2 0 0
993 2 1.2702403970718693e+01 -3.8506693821937943e-01 9.3646817554913415e+00 1 0 1
881 2 1.2398653322397809e+01 4.3428133600957075e+00 8.8719130684481939e+00 -3 0 2
319 1 1.1696355805557808e+01 1.1355820558928631e+00 1.3508507149697135e+01 -4 0 -3
53 2 1.2388317288786750e+01 1.3220248685645313e+00 4.7255438412822643e+00 2 0 0
274 1 7.8878263011082757e+00 -1.2220649282606428e+00 1.8852037553270151e+01 2 0 -1
991 1 1.3663559782121899e+01 -1.7118463485908042e-01 9.4394415710888602e+00 1 0 1
1583 2 -4.1292972362033424e+00 3.3310069292593862e+00 1.4022032037130664e+01 0 1 1
122 2 6.6258830459289051e+00 6.3362052555706505e+00 1.9035220855792353e+01 -2 0 -1
502 1 3.9793959637974594e+00 -1.5516646678102664e-01 9.8093362227327283e+00 0 0 -1
407 2 2.2215998707014015e+00 3.1998679652002568e+00 1.0375496340373690e+01 -2 0 -2
735 2 1.2705059385992829e+01 8.0318523113139992e+00 3.9274102849826540e+00 -3 0 -1
972 2 1.0427541375952423e+00 5.0880783921459098e+00 1.8268093863171046e+01 0 0 0
448 1 5.7700360732641087e+00 8.2473526685376246e+00 7.2309479431827901e+00 -1 0 1
762 2 7.8447668163312869e+00 1.4111407712421702e+00 1.9160104173788126e+00 -3 0 2
97 1 9.1267030825367144e+00 6.6378043842079713e+00 5.4845310816923556e+00 0 0 -1
177 2 2.0737147895778261e+00 1.7633119892476152e+00 1.3146996775717980e+01 -5 0 1
82 1 -2.5270998295214548e+00 9.4636843164980391e+00 8.1992567172338546e+00 0 0 -2
493 1 1.2691614262429596e-01 9.8324055023816506e+00 8.9508014527314810e+00 -3 0 -2
301 1 1.0514486545704962e+01 4.3549788929093962e+00 1.4823974873891790e+00 0 0 0
1582 1 5.3388580411104796e+00 8.6167310045226326e+00 1.4807087008657202e+01 0 0 0
143 2 5.7104917929069590e+00 1.0431481734781755e+01 7.3175163367695373e-01 2 0 0
463 1 3.0023648548323214e+00 7.1734934436837907e+00 3.9399115106126370e+00 2 0 0
449 2 5.0211934319390261e+00 8.8469594400766862e+00 7.3013291115032999e+00 -1 0 1
524 2 2.2426521857730695e+00 7.2901410089968941e+00 1.1065389522247211e+01 -2 0 -4
540 2 1.0701401436290961e+01 -7.5307531523834792e-01 1.8174289912791963e+01 -5 0 -4
523 1 3.1009819181649489e+00 6.8138941090890714e+00 1.1089509315517063e+01 -2 0 -4
658 1 8.2092289253653838e-01 4.7478854590694941e-01 1.3107825593626128e+01 -1 0 -2
206 2 4.2081274195680081e+00 2.9884810193186659e+00 9.2538168047521410e+00 3 0 0
96 2 1.5502936505512558e+01 4.9096738562711151e+00 6.0789720448141766e+00 -2 0 -1
441 2 8.3895457596810985e-01 4.9215679028094605e+00 1.4178840140934501e+01 -2 0 -1
151 1 9.2117013504820804e+00 1.9710293926489215e+00 8.9590769121108360e-01 3 0 0
781 1 4.0443058926086488e+00 2.6189920254648529e+00 1.1885710168977159e+00 -2 0 -2
880 1 1.2159250406413086e+01 3.8762781302914622e+00 9.7408382892070424e+00 -3 0 2
626 2 1.0116436308215707e+01 3.7391055888272646e+00 3.1729796825040180e+00 0 0 0
65 2 7.5176336475092622e+00 9.0834009249826142e-01 8.3546286183533596e+00 -2 0 -3
703 1 1.2969163900392871e+01 6.0058417934050734e+00 1.1346322551127379e+01 -3 0 -1
382 1 1.5030023740466316e+01 6.2647737824761984e+00 2.8170832899390543e+00 -2 0 1
21 2 9.2212114620916061e+00 7.7758874952627099e+00 8.6097922906590565e+00 -3 0 -3
688 1 1.5805889187338646e+00 -4.1324293658450395e-01 6.5598166085220155e+00 -2 0 0
54 2 1.1459567551905067e+01 6.8744352730913283e-01 3.7596711607819429e+00 2 0 0
926 2 -3.6698591175119621e+00 -4.0311358936468333e-01 1.2660749149491403e+01 2 0 2
689 2 2.3389304655369458e+00 1.1360533886645552e-01 6.9050980123045402e+00 -2 0 0
951 2 -3.9364968411732324e+00 1.0406021384911321e+00 1.6902090961172021e+01 -1 0 1
392 2 3.1249941617670522e+00 5.6574721959930150e+00 1.4266278653053504e+01 -1 0 -1
652 1 2.3717108073934741e+00 4.4216862280496336e+00 2.2790946887085970e+00 -1 0 0
52 1 1.1425508892232049e+01 1.2072141409120007e+00 4.5483302188023176e+00 2 0 0
356 2 1.7618677146603021e+00 3.0093026784252341e+00 1.6994001085461804e+01 -4 0 -3
477 2 7.0373680309458102e+00 5.2808885042863398e+00 1.3944726076922633e+01 -1 0 2
500 2 7.7581250729008744e-01 4.5490665026783699e+00 1.1483157499521264e+01 1 0 0
750 2 5.0502085809211614e+00 6.8552054309388506e+00 8.1803008545140816e+00 -3 0 1
839 2 1.1251433787742258e+00 7.7264830378839608e+00 2.6174414418249641e+00 0 0 -2
6 2 8.5522313883381464e+00 1.0304303957722295e+01 5.2953092169357650e+00 1 0 0
810 2 7.2643316189213305e+00 8.6788944408634840e+00 4.6072851314993493e+00 -4 0 -1
930 2 -1.3796381590300757e+00 1.3245743115710189e+00 6.4517489960105943e+00 1 0 0
702 2 3.8660960715393946e+00 -1.0950464822379578e+00 1.3943203465627695e+01 -3 0 -3
501 2 2.2261444056151012e+00 5.2137832938905904e+00 1.1645056125909749e+01 1 0 0
625 1 9.8962867919836306e+00 3.3276961017730633e+00 4.0118703309967580e+00 0 0 0
749 2 5.1142889454935494e+00 5.4412548038259718e+00 8.7101580334614415e+00 -3 0 1
101 2 6.3772137780731057e+00 4.1674291347792112e+00 1.2033646081483393e+01 -1 0 -1
384 2 1.5091685125647951e+01 7.2142095788835459e+00 2.7291736391666421e+00 -2 0 1
513 2 8.4857985400691636e+00 -4.6856001301780803e-01 1.5629465517120346e+01 1 0 0
622 1 -1.4474380790517456e+00 2.8713659438111314e+00 1.7774008808328290e+01 -2 0 -2
624 2 -5.2239521523161070e-01 2.8812989263300057e+00 1.7582371120770489e+01 -2 0 -2
179 2 6.0376638695173899e+00 4.8741105853367968e+00 1.7303543811170979e+01 -3 0 -1
1584 2 6.2210787502016656e+00 8.4280841600179937e+00 1.5170709547795958e+01 0 0 0
891 2 1.0756317738421014e+01 -8.1853334217486973e-02 5.8091860907607060e+00 -1 0 0
1668 2 3.4885477876328963e-01 1.2522260994062799e+00 1.2841709441591783e+01 -1 1 -2
269 2 2.6674153588445586e+00 9.7403648189622576e+00 1.3923814321141434e+01 2 0 -1
600 2 -1.3499730789753963e+00 5.1284080336172799e-01 8.5161035844940365e+00 -3 0 1
49 1 1.0283942309318750e+01 2.7175056530194057e+00 1.1951673264269955e+01 -1 0 0
183 2 1.3170287178240187e+01 6.4185205533155534e+00 8.2365168820905623e+00 -1 0 0
464 2 2.4054854300685924e+00 7.1965286527198238e+00 4.7431821326302961e+00 2 0 0
393 2 2.6674679625501678e+00 7.1141252201088836e+00 1.3701937795195688e+01 -1 0 -1
530 2 8.2982259646845513e+00 2.8956033417034366e+00 4.4676367611197412e+00 -1 0 0
713 2 -1.2485854153327809e+00 -8.5667933676697672e-01 1.2144850357259767e+01 0 0 3
135 2 1.4566500490838653e+01 4.6838943566495770e+00 8.3657627499961915e+00 0 0 -1
778 1 5.8250069922307501e+00 6.5860808723628628e+00 2.8644216430978306e+00 1 0 0
962 2 -1.9484365615063668e+00 9.1853382166834141e-01 1.5405580979358824e+01 -3 0 -1
598 1 -1.1751863764618520e+00 8.0541168222738824e-02 7.6560743941266285e+00 -3 0 1
120 2 4.7934720152724006e+00 2.3080666839025916e+00 2.7119643443698846e+00 -2 0 -2
830 2 2.1532301005821486e-02 9.3424715348129173e+00 4.0348817151056915e+00 -3 0 0
640 1 -1.0832561535225034e+00 6.2995242476305764e+00 8.6706840278175505e+00 4 0 -1
753 2 -4.4760248846618333e+00 4.7128721886947522e+00 1.5970920713145194e+01 0 0 2
234 2 1.1709296652959091e+01 8.6262525127083549e+00 5.5991769740360908e+00 -2 0 0
119 2 5.5651065156959483e+00 2.3198772779162313e+00 4.1310580145786107e+00 -2 0 -2
525 2 3.3769976544222478e+00 6.7137307900127876e+00 1.0171615245897648e+01 -2 0 -4
84 2 -1.7000664648068644e+00 9.6816534533515828e+00 8.6882344030251826e+00 0 0 -3
971 2 7.1532154871116154e+00 6.0502118792027950e+00 3.3278985794671789e-01 0 0 1
457 1 -7.2800953807138713e-01 2.5052993389949831e+00 3.4956387133515081e+00 -2 0 -2
212 2 9.1797233989769360e+00 5.6387706427411324e+00 6.7073337315498280e+00 -5 0 -2
701 2 4.7253567362605748e+00 -4.0512895657227155e-02 1.3049717269999382e+01 -3 0 -3
761 2 6.7363760737096525e+00 2.5879997695181478e-01 1.4433014813283616e+00 -3 0 2
470 2 7.8909782753014550e+00 1.3832673158396438e+00 1.6676239807489956e+01 -7 0 -3
131 2 9.1065141069584818e+00 8.6251751143933042e+00 1.3227103222969522e+01 -1 0 0
905 2 8.5604777486643808e+00 8.6160838151285066e+00 4.4377958413770985e-01 -3 0 2
85 1 1.1028331473156962e+01 1.2499636819334299e+00 1.6046751459396710e+01 1 0 -3
46 1 1.1544741472325082e+01 9.0753576180282671e+00 1.0162945861210325e+01 -3 0 0
233 2 1.0664805288860270e+01 8.4525452021860961e+00 6.8301618142276448e+00 -2 0 0
367 1 5.6716811092164852e+00 1.0391448057131811e+01 1.8213386537422924e+01 -2 0 -1
627 2 1.0270793760859341e+01 2.4119242664784557e+00 3.8555270909096704e+00 0 0 0
111 2 1.4457528805050739e+00 -1.5339339552786369e-01 1.6822093817055819e+01 1 0 -4
869 2 1.3396299614620713e+01 2.7663530708057582e+00 1.0277996608418608e+01 1 0 0
16 1 4.5897805854666345e+00 1.0464803211954776e+00 1.5869443751535835e+01 0 0 1
178 1 6.9563182500219165e+00 4.9922115365842270e+00 1.6951340223150140e+01 -3 0 -1
974 2 3.8764123362690028e-01 2.6216644925196881e+00 3.3080216140970653e-01 -3 0 -1
118 1 4.6920391429430381e+00 2.3422065135255812e+00 3.6772246175092147e+00 -2 0 -2
675 2 -4.5528480189822247e+00 7.7301886057833968e+00 1.4564054776538260e+01 0 0 -4
623 2 -2.0074218678744127e+00 2.5801893715590878e+00 1.7012832226264344e+01 -2 0 -2
254 2 1.0343984834205838e+01 9.8296063271115610e+00 1.6720429937219372e+01 -3 0 -3
644 2 -2.6230541623652823e+00 5.7966193929234819e+00 1.3584213748400364e+01 -3 0 -3
132 2 7.6905758403707294e+00 9.2269551005741945e+00 1.2770876890162056e+01 -1 0 0
828 2 -2.0037354553360558e+00 8.7572354328125250e+00 1.8381147256858924e+01 1 0 0
239 2 5.1463781934610013e+00 7.7862232446967337e+00 1.3318860648294480e+01 0 0 0
716 2 1.2353538485134614e+01 5.1428501110241926e+00 6.0302195014951758e+00 1 0 2
717 2 1.1457582076183272e+01 4.5980230936923245e+00 4.8566729472666754e+00 1 0 2
240 2 4.5056395724412930e+00 7.0203372167528748e+00 1.2089470209187787e+01 0 0 0
896 2 1.7060512415298014e+01 1.0046231153995711e+01 1.4464410176607341e+00 -1 0 0
17 2 4.7253924451482510e+00 3.9361874468251656e-01 1.5153247296847875e+01 0 0 1
779 2 5.1070822550955297e+00 6.6452803982502910e+00 2.1467289804213010e+00 1 0 0
253 1 9.6601143193515213e+00 9.4315450160265630e+00 1.7270957055183892e+01 -3 0 -3
645 2 -3.5304217056447054e+00 5.8474198413860963e+00 1.2331870634796239e+01 -3 0 -3
613 1 2.3540612723149081e+00 1.2613683968914402e+00 1.7144192691941420e+01 -2 0 -1
635 2 1.3902564671899511e+00 8.2021768412410925e+00 6.8610142857825744e+00 1 0 -2
238 1 5.3319916169745012e+00 7.1871315348895486e+00 1.2527297905262845e+01 0 0 0
522 2 6.9181765329668536e+00 3.0684540178234299e-02 1.2357897510832542e+01 -5 0 -2
715 1 1.2348348479463695e+01 4.9473150019958130e+00 5.0492110352882174e+00 1 0 2
115 1 -1.9099734417135901e+00 8.1774928564406775e+00 1.1883616516562334e+01 -4 0 -5
426 2 1.6904039890643553e+01 4.0319811809653405e+00 2.0773293046608803e+00 -2 0 1
295 1 1.5633080977635583e+01 8.3205618717348671e+00 5.6141832121338409e+00 1 0 3
920 2 1.0678312688091129e+01 3.9999436088805584e-01 8.5775844644390347e+00 0 0 -2
469 1 8.6471786215012987e+00 7.4925848587203658e-01 1.7017411014523031e+01 -6 0 -3
933 2 -4.5985967668271055e-01 3.3924445627367446e+00 1.3413872665249766e+01 -2 0 -1
949 1 -4.5909883942018492e+00 1.0842355307419811e+00 1.7592546423042098e+01 -1 0 1
868 1 1.3961492686142758e+01 2.0772694660441124e+00 1.0729608053726709e+01 1 0 0
538 1 1.7177956089412305e+01 -7.0810326747207841e-01 2.6633635211124697e-02 -5 0 -3
18 2 5.4092544426413767e+00 1.5773599728251315e+00 1.5857829826317221e+01 0 0 1
166 1 1.5419644516972729e+01 9.0910202603226775e+00 2.7393265967860740e+00 -4 0 -3
511 1 8.2657474719334125e+00 -1.3290648855693354e+00 1.5181702569256675e+01 1 0 0
785 2 -4.1851992955595763e-01 3.4368454853343513e+00 6.9257701601784207e+00 -3 0 -2
870 2 1.3833898358143548e+01 2.2661014380345539e+00 1.1672611637158267e+01 1 0 0
211 1 9.1548362160064194e+00 4.8409672281567371e+00 7.2743409934186936e+00 -5 0 -2
387 2 1.3942910710677467e+00 6.0184363229621773e+00 6.0643028396684686e+00 0 0 -2
428 2 9.9499303643812631e+00 8.1097891059217169e+00 1.8476698432687936e+01 -1 0 -1
643 1 -2.5666606802690755e+00 5.7857500397947437e+00 1.2623409110231606e+01 -3 0 -3
323 2 1.3867007781362460e+01 1.0230998169624868e+01 1.5719565868893534e-01 1 0 -1
160 1 -1.2514792223882845e+00 9.6037386688315500e+00 1.3942140233342867e+01 1 0 -5
559 1 7.7991031165428613e+00 6.1359902806439282e-01 6.7807138181770767e+00 -2 0 1
116 2 -2.1619214009662624e+00 7.2729917229274417e+00 1.2180469853039909e+01 -4 0 -5
224 2 7.0701822905321343e-01 8.0317261649698306e+00 1.6064647121950919e+01 -2 0 -2
845 2 5.1482956358688607e+00 2.1738221715550603e+00 1.1672285176115826e+01 1 0 1
889 1 1.0206168588643008e+01 -7.1532784398984561e-01 6.3300345088054994e+00 -1 0 0
117 2 -1.5609935929794112e+00 8.6720552295552711e+00 1.2633094856638202e+01 -4 0 -5
931 1 -8.2976974565002282e-01 2.5484928634895949e+00 1.3001928697607767e+01 -2 0 -1
429 2 1.6836312399265331e+01 6.7797327989739813e+00 9.8105108229687210e-02 -1 0 0
385 1 1.7357663480051548e+00 6.6558094423654648e+00 6.7304993431093560e+00 0 0 -2
840 2 -4.2599186883197737e-01 7.6105723322691574e+00 2.4597125097197758e+00 0 0 -2
144 2 6.4966344516565826e+00 9.0352920852219611e+00 8.8803131550528591e-01 2 0 0
42 2 4.9291020409063044e+00 4.7780526832697410e+00 5.9268197658644448e+00 -2 0 3
726 2 1.3854666648810483e+01 9.8101777167690107e-01 6.6872972395460524e+00 1 0 1
876 2 9.3908476561946728e+00 5.5212096013980885e+00 1.1183610292468382e+01 -3 0 1
769 1 4.3422134723527339e-01 7.6872618974467901e+00 1.0482821594741264e+01 1 0 -3
1002 2 1.2070577653467950e+01 2.6684910292357893e+00 7.1261485476105921e+00 -1 0 1
390 2 1.4787205846881118e+01 1.9491516731833181e-01 4.4853674290257732e+00 -1 0 0
68 2 2.4694440240814641e+00 8.1207628406216017e+00 1.7371031947295709e+01 -4 0 -3
41 2 4.3188834494349475e+00 4.1612842521271771e+00 4.6506907068952730e+00 -2 0 3
733 1 1.3082082232315503e+01 7.6669220995958707e+00 4.7851825652818993e+00 -3 0 -1
812 2 8.0798223866965202e+00 7.0399015882780898e+00 1.5405187332478123e+01 -2 0 -1
320 2 1.1258190537476541e+01 9.9210361706170680e-01 1.4445683419197962e+01 -4 0 -3
590 2 2.8300847465023020e+00 9.5480807787710322e+00 1.1589661415112300e+01 -4 0 -1
213 2 9.9592940336723199e+00 4.3007499528213735e+00 7.1348974452013838e+00 -5 0 -2
83 2 -2.2779684616921809e+00 8.9176069164606862e+00 7.4364827944773930e+00 0 0 -3
963 2 -2.9620139989995424e+00 1.8591481928369142e+00 1.4779519519959832e+01 -3 0 -1
338 2 3.3041458332128704e+00 5.7674586555968324e+00 1.6101111524829894e+00 -1 0 -1
938 2 1.3362943700540258e+01 3.7460441351418554e+00 1.6784510199375569e+00 1 0 1
969 2 3.2562267487140519e+00 3.7956002324968043e+00 6.3189743830882428e+00 -1 0 1
545 2 4.8054612733488282e+00 4.5673595723076943e+00 1.4394638799141047e+01 2 0 1
386 2 2.5788250219842515e+00 6.2275024929419942e+00 7.0147114391850556e+00 0 0 -2
937 1 1.3097365497744587e+01 4.6609503474384821e+00 1.4155032143742501e+00 1 0 2
40 1 4.1550501842617411e+00 4.9536276432647508e+00 5.2958912597763339e+00 -2 0 3
786 2 -2.8810751404768142e-01 4.8402548276824522e+00 7.7422058382296646e+00 -3 0 -2
620 2 -2.4232842482051344e+00 5.8779714088021331e+00 1.6085127266725607e+01 -3 0 -1
724 1 1.3752546199807989e+01 1.6812437215126610e+00 7.3405038376250591e+00 1 0 1
784 1 1.2628518077319795e-01 3.9940761965608083e+00 7.4710914260569421e+00 -3 0 -2
967 1 2.6751439842380629e+00 3.0979269415810080e+00 6.6981526581505477e+00 -1 0 1
553 1 6.8675767073962994e+00 2.3389637473023930e+00 1.5771956033207688e+01 -5 0 -2
681 2 -5.9629997487962321e+00 4.8921180369946589e+00 1.8736622405958265e+01 -2 0 -3
649 1 6.7768055064010309e+00 4.1685713442645991e+00 2.1979780794389487e+00 -4 0 0
650 2 6.9084637932185036e+00 3.7278394561439949e+00 3.0316825899465192e+00 -4 0 0
51 2 1.0899967903424560e+01 2.0840687915580918e+00 1.2350860495815500e+01 -1 0 0
47 2 1.1063364122794132e+01 8.7564532873088918e+00 1.0917087797993121e+01 -3 0 0
945 2 2.1230983462977635e+00 2.3824550352799156e+00 4.9437653631072580e+00 0 0 3
748 1 4.6287740692686814e+00 6.2731450465638838e+00 8.8272803498455499e+00 -3 0 1
939 2 1.3783533785064645e+01 5.2251681892209820e+00 1.8748702818926293e+00 1 0 1
397 1 1.4110130232510738e+01 2.7515387840288081e+00 4.8142379440122074e+00 2 0 0
127 1 1.6468046820418454e+00 7.9496039145226671e+00 1.4097984127689714e-01 -1 0 -1
128 2 -5.4015827310099862e+00 7.1955965685336274e+00 1.8745081210714762e+01 -1 0 -2
1407 2 1.3776423743548444e+01 3.5967349135587741e+00 5.0222517646021885e+00 2 0 0
34 1 2.6619177127869111e+00 -1.0600238556409480e-01 1.0213734403870469e+00 -1 0 0
928 1 -1.3446682112292532e+00 2.2044198795561307e+00 6.0228785228561845e+00 1 0 0
619 1 -2.0293663357698368e+00 6.1826886820363356e+00 1.5188671953306146e+01 -3 0 -1
152 2 9.8673567201504451e+00 2.7130709584982355e+00 1.1484662129430669e+00 3 0 0
439 1 2.2494285258749080e-02 4.4551388071725357e+00 1.4433238537390169e+01 -2 0 -2
350 2 1.4839271915274150e+01 2.1612103154024997e+00 1.8978072338441259e+00 2 0 4
987 2 -3.0482909304859032e+00 9.4207278128619549e+00 1.4697852916838327e+01 -2 0 -3
176 2 2.1068639094827155e+00 3.2988213026102677e+00 1.2967040330608349e+01 -5 0 1
783 2 4.3991180803947438e+00 2.6725114222243782e+00 2.9920283496775624e-01 -2 0 -2
148 1 4.2733237205565491e+00 7.9612354121140445e+00 1.7441784150343963e+01 -4 0 -1
994 1 8.2933443791207484e+00 5.3636557752357064e+00 9.8062949761876101e+00 3 0 1
725 2 1.3760499495519131e+01 1.2853399654783755e+00 8.1987620862582098e+00 1 0 1
149 2 4.4425001892286051e+00 8.0460839310695000e+00 1.6485010000440877e+01 -4 0 -1
129 2 9.6195824171162758e-01 8.5415460241803416e+00 4.6833897407659009e-01 -1 0 -1
36 2 2.1218122366986512e+00 -1.2065499203066898e-01 1.9166039340466667e+00 -1 0 0
173 2 1.0169317831624930e+01 4.2355406889360321e+00 1.6578068979260394e+01 -1 0 -2
531 2 7.1958384279371641e+00 3.0177427673868653e+00 5.5546047663938705e+00 -1 0 0
827 2 -3.3610523617691532e+00 8.3976489497963218e+00 1.8101760316331070e+01 1 0 0
186 2 -4.9384985969576967e-02 -7.6871520010005623e-01 1.8418761021188981e+01 -4 0 -6
462 2 9.1324134579989611e+00 4.9646294733632468e+00 1.4885838052318139e+01 -4 0 -2
651 2 7.3500411104308379e+00 3.6962509679433939e+00 1.6465016635900487e+00 -5 0 0
996 2 7.7978534686020220e+00 6.1714499856695726e+00 9.6255290762165320e+00 3 0 1
611 2 -1.0527626189961738e+00 2.7149876752685840e+00 9.8730428701423047e+00 0 0 2
764 2 1.4037201025571548e+01 7.1105196123121583e+00 1.0172778872399514e+01 -4 0 -3
275 2 1.3872942930845467e+01 -8.2136990205373184e-01 3.5058879567359341e-01 2 0 0
844 1 4.4808846712271109e+00 1.4833734304802304e+00 1.1883827953741495e+01 1 0 1
102 2 7.0072054083250581e+00 3.8405098234870145e+00 1.0654559679885688e+01 -1 0 -1
497 2 4.0102660978373947e+00 1.6665854625836212e+00 7.0852632926620043e+00 0 0 1
498 2 4.1983035364017915e+00 4.5231163758698889e-01 8.1087918270244916e+00 0 0 1
395 2 9.5913080656684837e+00 6.6921516865846193e+00 3.5238884761266931e+00 -3 0 -3
488 2 -5.0796795075665582e+00 1.0093644809556114e+01 1.5889304838636766e+01 -4 0 0
349 1 1.3943865792376037e+01 2.0297512946498060e+00 2.2652813598045500e+00 2 0 4
679 1 -6.0519441714459843e+00 5.6340123929220578e+00 1.8094908581848113e+01 -2 0 -3
398 2 1.5008783672428539e+01 2.6977171089929470e+00 5.2273351051633226e+00 2 0 0
1994 2 -3.4704128959320388e+00 8.7583058194328558e+00 1.6110923564030170e+01 -2 0 -3
503 2 3.0477201515165291e+00 -3.7100760535137778e-01 9.9770545225367311e+00 0 0 0
321 2 1.2059072063446553e+01 2.6009574162670557e-01 1.3351335377314484e+01 -4 0 -3
943 1 1.8919895781173059e+00 2.2706359684023201e+00 4.0203542094634770e+00 0 0 3
673 1 1.2855598190853744e+01 7.0947984381749460e+00 1.4046357202664314e+01 -1 0 -4
621 2 -1.4932208716048652e+00 6.9496205000028546e+00 1.5316779762246403e+01 -3 0 -1
687 2 6.5434581813616788e-01 -7.4213643477769597e-03 9.7326053170567306e+00 -3 0 0
172 1 1.0240567572186430e+01 3.9005422389991020e+00 1.5698093460964518e+01 -1 0 -2
298 1 -2.9629554699249532e+00 5.0892554918822830e+00 1.7336650590115138e+01 -2 0 -2
680 2 -5.4021587627554570e+00 5.6163233724049855e+00 1.7389309316892248e+01 -2 0 -3
495 2 7.3627970443985724e-01 9.6340275769345265e+00 8.1832731588651804e+00 -3 0 -2
560 2 7.2719095499954989e+00 -1.7198793228285369e-01 6.5898751700550688e+00 -2 0 1
944 2 2.7269571317373860e+00 2.3899363809297989e+00 3.5303746356496748e+00 0 0 3
100 1 6.4874690954726324e+00 3.4242743124641750e+00 1.1370883610265759e+01 -1 0 -1
1667 2 1.0048935372073071e+00 -2.5803117793633756e-02 1.2336691279623896e+01 -1 1 -2
352 1 7.6431427862398769e+00 8.1730350383222738e+00 8.9890703078766414e+00 -1 0 0
174 2 1.0166756607967429e+01 2.9228953416988714e+00 1.5890891878778481e+01 -1 0 -2
388 1 1.4118641974685668e+01 -1.6159393769297847e-01 5.0887298619674635e+00 -1 0 0
465 2 3.6297448138044093e+00 6.4746114424988592e+00 4.0734858931539648e+00 2 0 0
175 1 2.5705682320124632e+00 2.5774411373661570e+00 1.3338795328772527e+01 -5 0 1
460 1 8.7403032229316224e+00 5.7085652104721563e+00 1.4403597697963862e+01 -4 0 -2
599 2 -1.7081681941232594e+00 -7.3942696572571820e-01 7.5287843130471410e+00 -3 0 1
669 2 9.2527388245359106e+00 1.0407654174450441e+01 1.2554552547041306e+01 -3 0 -3
548 2 6.0734787880581846e+00 1.0223826478812526e+01 1.1497042088491742e+01 -3 0 -4
897 2 5.7594745055586605e-01 1.0497597131970847e+01 1.6313652825200955e+00 -1 0 0
595 1 5.9297995759857258e-01 5.1795947104230020e+00 4.4755545185257555e+00 3 0 -2
528 2 4.2691745411657660e+00 -9.9660775238994637e-02 5.6990647821991711e+00 -2 0 -1
109 1 8.0155404427824539e-01 -8.6579558677939428e-01 1.6889648700789202e+01 1 0 -4
615 2 3.2094482210589348e+00 1.0977872818833769e+00 1.6689931103837019e+01 -2 0 -1
925 1 -4.4324378458292983e+00 -8.0727347761032708e-01 1.3149727780772462e+01 2 0 2
461 2 9.1782780449905239e+00 5.6105439077546064e+00 1.3536111617948391e+01 -4 0 -2
130 1 8.4708534823315382e+00 9.3767954305730719e+00 1.3341679770561202e+01 -1 0 0
408 2 1.8069093699931029e+00 2.5672218479967071e+00 8.9817982624688906e+00 -2 0 -2
20 2 1.0697165342436460e+01 8.2097570165144482e+00 8.9728661035614952e+00 -3 0 -3
182 2 1.1624929752805684e+01 6.4489496421437771e+00 8.1042657877485897e+00 -1 0 0
35 2 3.1955557985613141e+00 7.1620638135720327e-01 1.1059672825528839e+00 -1 0 0
471 2 8.2378109244158360e+00 4.5561098221696517e-02 1.7562174410841706e+01 -6 0 -3
690 2 7.8974996196653224e-01 -1.7899127966514117e-01 6.9903718594371291e+00 -2 0 0
475 1 6.2020093671547096e+00 5.0483774959543002e+00 1.3466583055662872e+01 -1 0 2
87 2 1.1826258964510476e+01 1.3403472851743841e+00 1.6573094144348136e+01 1 0 -3
526 1 4.4081563632742515e+00 -2.9316434153976711e-01 4.7761454360980684e+00 -2 0 0
133 1 1.4658529357281584e+01 4.3774871982714991e+00 7.4637061709781136e+00 0 0 -1
610 1 -1.4852525511052996e+00 1.8318586488692454e+00 9.9807772157536139e+00 0 0 2
775 1 1.0574202194821339e+01 6.6897002277245043e-02 2.0144155160649393e+00 -2 0 2
583 1 -3.9138552062473151e+00 1.0094905126897597e+01 1.1799886848220684e+01 -4 0 -4
300 2 -2.8690688624487199e+00 5.8487384295704219e+00 1.7932481283419406e+01 -2 0 -2
589 1 2.7880728395295864e+00 9.9847694175555777e+00 1.0729054108507434e+01 -4 0 -1
782 2 3.3877175118046274e+00 3.3711965072654522e+00 1.2756236287379390e+00 -2 0 -2
244 1 1.0595709392874502e+01 7.9479062186635883e+00 1.2811787428558462e+01 -4 0 -4
561 2 7.6993629972222353e+00 1.2623353945968256e+00 5.9936161426034893e+00 -2 0 1
728 2 8.2202175901125383e+00 4.0204187203166546e+00 1.8001906163836214e+01 0 0 1
113 2 8.6182701698314510e+00 1.9273175899924340e+00 1.2866578720412292e+01 -2 0 -1
549 2 5.9999665839907594e+00 8.6644758923481255e+00 1.1622396550358056e+01 -3 0 -4
575 2 5.2765833719023325e+00 9.6051971360678898e+00 1.4765093723137342e+01 0 0 0
608 2 6.1559459334894626e+00 -9.4309388671356753e-01 4.3913406313646419e+00 -3 0 0
636 2 2.2256334264329261e+00 9.5386411064631709e+00 6.8944955474959597e+00 1 0 -2
634 1 1.3195330424098959e+00 9.1932033781821954e+00 6.8025762797193332e+00 1 0 -2
727 1 8.7413630615155959e+00 3.4049582064647179e+00 1.8495437630714029e+01 0 0 1
114 2 7.2082313896741406e+00 2.4575770308327720e+00 1.2570664649689739e+01 -2 0 -1
425 2 1.6200961104584199e+01 5.3325198072855207e+00 1.8917114336697611e+00 -2 0 1
544 1 4.0467290193972865e+00 4.4578120478672076e+00 1.5047307150170129e+01 2 0 1
875 2 1.0117260750513051e+01 4.3905854941355242e+00 1.2053053118358063e+01 -3 0 1
1001 2 1.0821778595290178e+01 2.3076222881320740e+00 6.2820368819787262e+00 -1 0 1
496 1 4.0687433937093607e+00 6.4411021977801042e-01 7.1625257467264669e+00 0 0 1
167 2 1.4836496861182358e+01 9.7660263549333770e+00 3.1516376053313420e+00 -4 0 -4
337 1 3.7930252417956876e+00 6.3338765984724645e+00 9.6576156975880967e-01 -1 0 -1
699 2 1.1668536442777459e+01 9.3251236659707466e+00 2.4980236278163943e+00 2 0 4
270 2 1.4726994173805918e+00 8.7988090668725665e+00 1.3434888718150201e+01 2 0 -1
961 1 -2.7205904618470833e+00 1.5119978923906512e+00 1.5681536877968966e+01 -3 0 -1
232 1 1.0803121591889976e+01 8.8872574242897482e+00 5.9002575454615354e+00 -2 0 0
760 1 7.1582108763106929e+00 7.3218438780767325e-01 2.2143003757561317e+00 -3 0 2
641 2 -3.2117858185636061e-01 6.7791167244330879e+00 9.1888770779009086e+00 4 0 -1
142 1 5.6002550855995121e+00 9.4687833472815672e+00 6.6190475692705686e-01 2 0 0
389 2 1.4455854999004018e+01 -9.3932482790076488e-01 5.5424277775320006e+00 -1 0 0
831 2 2.5704181381006053e-01 9.8784164788352626e+00 5.4539035345675151e+00 -3 0 0
207 2 5.7908193505037930e+00 2.3547206093739517e+00 9.1846868155175567e+00 3 0 0
808 1 6.7122778532083966e+00 7.9356920942442457e+00 4.9465918840318235e+00 -4 0 -1
168 2 1.5321383605973468e+01 9.3965716011308267e+00 1.8032631902449199e+00 -4 0 -3
577 1 1.2575530752802567e+01 5.3438795054815746e-01 5.3388391795784074e-01 0 0 1
19 1 1.0195588585339223e+01 7.6549845301309993e+00 8.3516542159850893e+00 -3 0 -3
1000 1 1.1123647577746134e+01 2.8954719651603682e+00 7.0106895368473561e+00 -1 0 1
294 2 -1.3419071519537873e+00 4.9414570241674411e+00 1.1578359969438839e+01 1 0 -3
585 2 -3.1749426385076074e+00 9.4515112212470669e+00 1.1736318949457988e+01 -4 0 -4
686 2 9.4337118090124772e-01 -1.4004200239807225e+00 1.0274430698314708e+01 -3 0 0
921 2 1.0254930252927032e+01 -9.6264607842431005e-01 9.1420271574983776e+00 0 0 -2
813 2 8.3609701316089993e+00 8.0856046967000381e+00 1.6580872341723765e+01 -2 0 -1
912 2 9.8829555666273734e+00 2.7413237458919593e+00 8.3855328634541664e+00 -2 0 1
734 2 1.2717559906376483e+01 6.7540707283615244e+00 4.8119460671875531e+00 -3 0 -1
674 2 -4.9751176859534274e+00 6.2042942090921986e+00 1.4441008696440859e+01 0 0 -4
771 2 4.2489924153197922e-01 8.5589558865694766e+00 9.9994440066096377e+00 1 0 -3
826 1 -2.4559434563589706e+00 8.3057311055246732e+00 1.7686742015573895e+01 1 0 0
809 2 6.3870658220799648e+00 7.4157254411791786e+00 4.1343426034620236e+00 -4 0 -1
866 2 4.1373994382842465e+00 5.0310124830207714e+00 1.8558476541619132e+01 -3 0 -1
94 1 1.6024449106079189e+01 5.4338788674824334e+00 5.4216170187414452e+00 -2 0 -1
225 2 1.0468134509133220e+00 7.2904696966437967e+00 1.4736609741263981e+01 -2 0 -2
770 2 -3.7147768879241827e-01 7.8612377045881470e+00 1.1124544583946172e+01 1 0 -3
123 2 1.4392552476410570e+01 7.3130824282657265e+00 1.5091185291135528e-01 -2 0 0
440 2 -6.9908912927165989e-01 5.0461229877877543e+00 1.4726358448519305e+01 -2 0 -2
383 2 1.5051622749996698e+01 5.9133774706206932e+00 3.7260023235496478e+00 -2 0 1
697 1 1.1844138953084324e+01 8.3715684099702479e+00 2.4577932421819950e+00 2 0 4
499 1 1.7220701535569107e+00 4.3952586391764914e+00 1.1661342522967358e+01 1 0 1
910 1 9.7338099608045798e+00 2.4441966901295245e+00 9.3205080339253428e+00 -2 0 1
546 2 3.5884406689882553e+00 3.6307705645419350e+00 1.4844456837535263e+01 2 0 1
291 2 4.7474233827521193e+00 9.4038847170665214e+00 2.3065698155424554e+00 0 0 3
729 2 1.5893689849943224e+01 3.9965714269570256e+00 4.7232228590098999e-02 0 0 2
612 2 -2.4335727474738089e+00 2.0392325989957856e+00 1.0068360444255831e+01 0 0 1
714 2 -1.6206298462908495e+00 3.9689241648501072e-01 1.1430756402002416e+01 0 0 3
121 1 1.3400610574208502e+01 7.3006921858030740e+00 1.9951313934561585e-01 -2 0 0
911 2 8.8747630657610852e+00 1.9183093673314056e+00 9.2592231260926301e+00 -2 0 1
424 1 1.6952082625472332e+01 4.7950315235279239e+00 1.5026968975952133e+00 -2 0 1
811 1 7.6685087839563737e+00 7.5130422885621559e+00 1.6175471682809690e+01 -2 0 -1