LAMMPS data file via write_data, version 8 Apr 2021, timestep = 3428000

1008 atoms
2 atom types

0.26658028307415677 18.132974716925375 xlo xhi
0.03635633019874753 22.534032669789646 ylo yhi
0.291236034429437 19.214479965578985 zlo zhi
-0.14257460241203948 -6.608317563065552 0.287452896927902 xy xz yz

Masses

1 16
2 2

Atoms # atomic

1 1 6.408483204032455 1.0178000041281368 4.751643158677594 0 0 0
3 2 6.669621480631828 1.402345649951204 3.92462268151448 0 0 0
4 1 3.9748935827338103 1.2176552593765757 4.983881753710286 0 0 0
6 2 3.924286960967356 1.3973687782036832 5.930559307072274 0 0 0
7 1 -0.5417447733889176 6.526375525772278 5.161917651898728 0 0 0
8 2 -0.48253730681730417 6.155946245010437 6.097180130248616 0 0 0
10 1 2.0995017396027613 6.3854585711815535 4.922713247571384 0 0 0
11 2 1.0982523326716327 6.557175907202733 4.892750370517237 0 0 0
12 2 2.524170534887964 7.235800110369853 5.009038839443523 0 0 0
18 2 5.3739921168741756 5.3774353931194305 1.336445401382313 0 0 0
25 1 4.818628568552878 6.429155199767195 7.295870807424996 0 0 0
26 2 5.463450375855734 7.11731339365278 7.560330844780508 0 0 0
27 2 3.9139870390614373 6.731832787142285 7.46820684247704 0 0 0
28 1 5.925034524952916 6.336089387772489 2.700119612832009 0 0 0
29 2 5.755418417133233 5.937824534284541 3.576015299480633 0 0 0
30 2 5.362709048049453 7.136546023287071 2.6804929602300396 0 0 0
31 1 1.385324136973927 1.2603198883287507 2.7265232885991657 0 0 0
33 2 1.4143931215060392 1.7308988248688468 3.587024545815173 0 0 0
34 1 0.5678812548341698 1.1518538338978903 7.362020987931439 0 0 0
36 2 0.6847736851458814 1.9031691684633838 7.995753930494613 0 0 0
37 1 6.620349417738009 2.727884397986857 2.5515332334343066 0 0 0
38 2 5.746765521358606 3.1854957943204405 2.5705365575339023 0 0 0
39 2 7.318403551144788 3.4852751681425453 2.73152017258826 0 0 0
40 1 4.202202720386139 2.5913649242188845 7.68623478843926 0 0 0
41 2 5.086144439531283 2.87761406418899 7.506520851404095 0 0 0
42 2 3.643173268837667 3.3195941134083644 7.293108955051575 0 0 0
43 1 -0.31153568597752895 5.157961795265 7.360639870507599 0 0 0
44 2 -1.0648017400170375 4.5106286464731395 7.258930748284537 0 0 0
45 2 -0.41219797660314367 5.5472953749079 8.28601688575436 0 0 0
46 1 1.7222735411483343 4.901461718985335 2.5570949274675656 0 0 0
47 2 0.8133881333572939 4.61665477985628 2.5097059915902293 0 0 0
48 2 1.8137848258630112 5.469894551478398 3.3666017568879965 0 0 0
49 1 6.782928625791985 3.457727188399694 6.336803901194095 0 0 0
50 2 6.280417281152567 4.08574036086031 5.715431892969773 0 0 0
51 2 6.961050703281321 2.683364294636459 5.816708812899673 0 0 0
52 1 3.9506333738879857 3.361163098905245 3.229626342936241 0 0 0
53 2 3.0868013867630872 3.798868267034708 3.0006691611205416 0 0 0
54 2 3.741651682802917 2.705996376304396 3.933877963433951 0 0 0
57 2 -0.10355885266251391 3.559311379445142 4.277276148786027 0 0 0
58 1 2.2828782513819954 4.297183001481305 6.687590976422953 0 0 0
59 2 2.428092651596457 5.136788090367953 6.244608494913682 0 0 0
60 2 1.3187550221520323 4.387704235407901 7.135587425824273 0 0 0
61 1 8.199881148401397 7.3083128814862315 1.7464702145273288 0 0 0
62 2 7.38385213003605 7.13671265680901 2.2318156362971453 0 0 0
64 1 2.382950992347061 7.347803683891184 8.124153841768461 0 0 0
65 2 1.5634521122077503 7.642485920951444 7.681583266011575 0 0 0
72 2 4.1430694396215575 1.4275504548717433 1.5158417937472817 0 0 0
73 1 5.273491376383419 5.315369746583245 5.077232070575213 0 0 0
74 2 5.0477872018389025 5.799254417763546 5.896222080025245 0 0 0
75 2 4.520947899768939 4.826927070252136 4.717523407009853 0 0 0
76 1 0.8793016487998784 2.5479191991444265 5.154404523653886 0 0 0
77 2 0.7375393357398227 1.9278865141220085 5.894067219708125 0 0 0
78 2 1.5613821980724232 3.183861075782124 5.48041440672357 0 0 0
91 1 8.3268299569278 6.534864072783989 5.109147442626194 0 0 0
92 2 8.214820131017726 5.7949252325533545 4.452503688995832 0 0 0
93 2 9.242871069813614 6.860997130385934 5.047219471944737 0 0 0
115 1 10.629721493138051 1.1995650077690962 2.817391328806909 0 0 0
116 2 10.518527763042774 1.7897323946260915 2.029357855472627 0 0 0
118 1 9.34545878741935 1.1505947274083481 7.11891651414945 0 0 0
127 1 8.566915311753101 4.957626661697462 7.547432981291607 0 0 0
128 2 7.926805539562684 4.268052112531935 7.234415576812498 0 0 0
129 2 8.335415929303537 5.687318528798552 6.91989579629111 0 0 0
130 1 11.035039592819428 5.010498535502914 2.3905032150006673 0 0 0
139 1 8.518622753861102 4.3708415194050145 3.3149462218187153 0 0 0
140 2 9.29448787996333 4.596964396077765 2.699909190436343 0 0 0
141 2 8.93749865764835 3.5834689870982768 3.89767992918807 0 0 0
160 1 9.681668397338285 2.5558681885994017 4.785665578948529 0 0 0
162 2 10.244408844566573 2.041457876557628 4.135437943570998 0 0 0
169 1 6.379519207029355 8.50722803898673 4.801533072161943 0 0 0
170 2 6.936154654140823 7.696053967467 4.697600039314779 0 0 0
171 2 6.816782659131805 9.013657537447155 5.499622251746737 0 0 0
172 1 3.6646083178939812 8.72719949206081 5.23014054037773 0 0 0
173 2 3.6759792973437557 9.439394316896824 4.533627509702641 0 0 0
174 2 4.555400954793834 8.346585778118977 5.189843975828269 0 0 0
199 1 1.2381109143757236 8.4427839606827 3.0178248610281315 0 0 0
200 2 1.227900784036555 9.137787252534729 2.347933773098865 0 0 0
201 2 0.5284422038054111 7.842954924433958 2.669401394086242 0 0 0
202 1 0.15653042596980166 8.693299799272205 7.513744445502269 0 0 0
203 2 -0.7732330399191227 8.480197998887414 7.720791286317188 0 0 0
204 2 0.06875338350222415 9.11463760997051 6.636960966963438 0 0 0
205 1 6.231996184864599 10.091105859202491 2.721243011917626 0 0 0
206 2 6.311487005672901 9.35243783290982 3.3795710586503622 0 0 0
207 2 6.43364158694548 9.676053903573568 1.8572767779123436 0 0 0
208 1 4.338322708530426 10.238140815974614 7.472005636409753 0 0 0
210 2 4.108463924594742 9.54969832344805 6.749729919989373 0 0 0
238 1 3.9491853961714902 8.119962955487185 2.2209702140280987 0 0 0
239 2 3.067439828061662 8.175570151188667 2.6681763889097763 0 0 0
240 2 4.059945128110984 9.000554411807032 1.7846516850483656 0 0 0
244 1 0.7671149294139272 10.443533996401557 5.161969673334903 0 0 0
245 2 1.2765789630464766 9.861083014699334 4.5361310873603555 0 0 0
283 1 10.447416085911875 8.759052311345414 2.273344662132347 0 0 0
284 2 10.324032474999473 9.053508088565046 3.21062254042684 0 0 0
285 2 9.67721378752648 8.16269626769434 2.162689196772029 0 0 0
288 2 8.420926103685966 8.27085883657994 7.52064491770519 0 0 0
319 1 6.882049694544735 7.959922038252435 8.187538792652674 0 0 0
329 2 9.530313398438608 9.368436165998032 5.7909576567954355 0 0 0
66 2 2.6183191739228837 8.071035475238029 8.722237881600648 0 0 0
21 2 1.1239580569011725 2.237729988122765 1.2645523132161918 0 0 0
132 2 11.081683674421122 5.614752148022248 3.166771824163978 0 0 0
286 1 9.319932136279482 8.631390495656095 7.3785809321649545 0 0 0
328 1 9.895343099845777 9.744815972136445 4.911876284328215 0 0 0
94 1 11.069538493920847 6.339528652471909 4.732793464918358 0 0 0
119 2 9.353800245497071 1.8432257714182658 7.821236211367036 0 0 0
131 2 11.70328671231519 4.380224950289505 2.6592142291920644 0 0 0
161 2 10.234941789083674 3.138010323188196 5.353266473278695 0 0 0
287 2 9.963701092074935 7.952282745183786 7.669420168653337 0 0 0
144 2 10.282893186427986 4.522750650874754 7.064640854801026 0 0 0
321 2 7.147422203162106 7.412024616396839 8.963268062068808 0 0 0
120 2 9.473310174281831 1.7232405370324153 6.3281460564987135 0 0 0
192 2 0.6296439319557345 10.235484212367686 8.681941698077539 0 0 0
323 2 12.115620071203558 8.246612921123395 2.214329893315914 0 0 0
324 2 12.46910708738504 7.393654574637176 0.9709539513107384 0 0 0
14 2 5.285493299922319 5.547160922470701 8.948936251591968 0 0 0
320 2 6.6418609236621675 8.798342616866398 8.58470849939164 0 0 0
5 2 4.9731510924086475 1.040778087470967 4.834677872718474 0 0 0
272 2 10.073225183117 9.94839452570854 1.0837986414733936 0 0 0
153 2 6.645647769059853 1.2733555451170124 9.006059968272984 0 0 0
63 2 8.470077277820758 6.550240527422894 1.24089113674123 0 0 0
32 2 2.313520798637449 1.0599928097300115 2.4773870700356295 0 0 0
246 2 1.4505016661830732 10.966916806988026 5.5984403262309375 0 0 0
330 2 9.26791380347898 10.375357372117062 4.5655641392978215 0 0 0
276 2 9.583077638206783 10.109801747989318 8.703789525886453 0 0 0
96 2 11.214839052564558 5.587264368087772 5.3034485630546015 0 0 0
95 2 11.75443515299924 7.036473994623814 4.8925325233379295 0 0 0
322 1 12.886401891035964 8.049695527448277 1.6291908427324486 0 0 0
142 1 10.92758692607995 4.081808583580693 6.461905900473856 0 0 0
80 2 6.96676203212146 2.1569542068812058 1.0115225844627629 0 0 0
155 2 13.2465091591469 1.2484129684777334 1.1503150568917364 0 0 0
671 2 8.284619117230285 5.911985954108511 9.158382309199123 0 0 0
83 2 2.1814046040790713 5.633726167025067 1.1439229197822336 0 0 0
35 2 -0.3660507822971976 0.8580376039810054 7.561406358851212 0 0 0
235 1 -2.4811878280558095 7.966122367485993 8.240284186452591 0 0 0
148 1 11.328819682364285 7.198911931592269 8.414016988919355 0 0 0
136 1 12.7319049002318 3.251316138686391 3.600075170165479 0 0 0
149 2 11.057935524471429 6.3772776172998125 8.895987594164954 0 0 0
89 2 12.628079733711843 1.6977747263832728 4.683676323544915 0 0 0
258 2 12.456955325288568 9.296988024674617 4.589657153089458 0 0 0
152 2 7.561753617164721 0.6714587040344413 7.87159069279306 0 0 0
585 2 3.9980192578653417 1.9487162721792335 9.274922135371174 0 0 0
399 2 8.124382777997903 0.22234817690785877 1.4615661768593353 0 0 0
753 2 3.9628310138963445 9.805285960625335 9.312169686875864 0 0 0
156 2 12.241079424494625 0.6896521892045713 2.2715258351198364 0 0 0
304 1 12.903864864348188 10.811867881243343 3.559636056843901 0 0 0
143 2 11.72712217853876 4.03733856571267 6.950682772000979 0 0 0
150 2 11.59603975103541 7.787188245519528 9.115367133225037 0 0 0
88 1 12.783750398787515 1.212533051298484 5.539518653831505 0 0 0
137 2 12.917131926189516 3.877048521767685 4.314684813700243 0 0 0
138 2 13.661973228450533 3.2451440987762123 3.256322669447242 0 0 0
256 1 12.580035430253544 8.477099471147122 5.1769631717703195 0 0 0
306 2 13.676046890529026 10.448635150051928 3.087940731062693 0 0 0
113 2 13.846586773249145 7.02632615631328 2.3099320415453475 0 0 0
101 2 14.51135855644752 5.247246294890162 1.4684497538293728 0 0 0
126 2 13.01397457231225 2.144396259838695 7.016774155887353 0 0 0
111 2 12.703660703111586 6.712816623872947 7.659153516441117 0 0 0
124 1 13.246170868677044 2.8420128658123267 7.707264911277054 0 0 0
90 2 13.634315895750117 0.7541261817788865 5.454788452032972 0 0 0
294 2 12.651858381764407 9.295312668070087 6.911710940688883 0 0 0
112 1 14.535311833636644 6.41189858799849 2.6934160758166703 0 0 0
257 2 13.58460262678122 8.481132663708232 5.267275416639635 0 0 0
159 2 13.778896398012325 5.554419861070035 5.955253052609283 0 0 0
151 1 6.848595081236743 0.42847485240990474 8.524936739662913 0 0 0
9 2 -1.0137466854390704 7.3744386178176935 5.118227933162341 0 0 0
292 1 12.89727286614637 9.962980357544987 7.605157345165463 0 0 0
291 2 15.197119025738289 9.49104406188223 1.8044237412728128 0 0 0
123 2 15.372494701837072 2.6313092575720027 1.7843177545288582 0 0 0
311 2 10.80898236245025 10.879839622942223 5.87023683790095 0 0 0
24 2 -0.041950927519743886 3.225523979620426 9.278575755215305 0 0 0
293 2 12.216080194074003 10.652564799284715 7.410289416934146 0 0 0
109 1 13.530536403549114 6.287015079195222 7.354215271031765 0 0 0
22 1 0.8144272275448772 2.882604713482556 9.446719182684364 0 0 0
217 1 6.876978265126554 10.744118357044973 6.392934036861606 0 0 0
145 1 17.098067650426263 6.942335729127652 1.8242286835041426 0 0 0
97 1 13.843774575566913 4.867584251650899 9.740712388922963 0 0 0
82 1 2.6521490130532746 6.097628775567355 0.42554630848376224 0 0 1
668 2 12.538498555856247 2.2327002257550177 9.214527353704586 0 0 0
157 1 14.083734154984496 5.150105682403156 5.114714897564146 0 0 0
836 2 12.796725473165866 9.489753447727358 9.390312885583905 0 0 0
121 1 15.109990619937934 2.8260765137803383 2.7182816762643522 0 0 0
289 1 15.141416934418388 9.90750347704694 2.6918038673766245 0 0 0
158 2 14.203321513079006 5.871622976625221 4.417246453482345 0 0 0
221 2 4.685855664309149 10.627833116004116 3.0238862141142975 0 0 0
56 2 -0.9991109889489918 4.9475500459120765 4.26441798833214 0 0 0
55 1 -0.6927664702618861 4.155204863908519 3.7371617414484377 0 0 0
309 2 7.726782873886373 11.037544783976704 2.954853515815664 0 0 0
218 2 7.537215454814561 11.289836154908452 6.821285381376789 0 0 0
167 2 11.38266777784033 5.507852407231083 0.7177154600304685 0 0 0
68 2 -2.195165449134369 1.5423912502454376 8.698285505697287 0 0 0
163 1 15.805782207758337 1.5185920934078454 0.4364122442708226 0 0 0
220 1 3.8618819653850007 10.909012398078795 3.4792686766493732 0 0 0
122 2 15.868291468338146 3.413408702235113 3.0787265539888855 0 0 0
209 2 3.7716174229717123 10.996179509428835 7.2089146625091605 0 0 0
236 2 -2.73780628286992 8.690397859734645 8.814504093688415 0 0 0
117 2 9.874750914795703 0.6051350132137799 2.674156565352482 0 0 0
219 2 6.125989611872891 10.729728005098567 6.982036520254285 0 0 0
523 1 -2.1683193892137296 2.8001730405468828 9.630843985319993 0 0 0
486 2 11.467684511741812 0.40056738612325044 8.963872769942746 0 0 0
23 2 1.3702038906470593 3.6640131568281498 9.68534623757341 0 0 0
86 2 16.03813322199474 0.3505464479968705 4.9601084930150465 0 0 0
302 2 14.839733309269661 10.716243865452187 7.20017828024366 0 0 0
165 2 16.562388986280393 1.0114519715014634 0.8025151991285878 0 0 0
100 1 14.582567074453607 4.826132795208251 0.5580036051449563 0 0 0
102 2 13.857582630673695 4.106310404723583 0.5123755187911934 0 0 0
67 1 -2.037049497404294 0.6798679230867375 8.27824523372014 0 0 0
2 2 7.114962011328932 0.321288959533202 4.974115102265354 0 0 0
85 1 15.405304794764417 1.0883548655539337 4.998254334163258 0 0 0
110 2 13.777141629771824 5.573061176550148 8.004332076821285 0 0 0
70 1 3.943156625770612 0.5425137021303836 1.8515267527404 0 0 0
154 1 13.015780663713572 0.45199503105992694 1.7232069473672182 0 0 0
146 2 17.28031557554514 6.137589640615187 1.284500897868306 0 0 0
255 2 15.41423695292166 8.857199628194408 4.215595028018317 0 0 0
114 2 15.434753106210795 6.742572395189967 2.437464156981189 0 0 0
125 2 14.113345806078785 3.2263462893265737 7.469753852180632 0 0 0
290 2 15.75125444850638 10.639330529301708 2.608519583820154 0 0 0
587 2 -1.5047770980533188 6.809785791894014 9.280413165562276 0 0 0
69 2 14.987295603572022 0.29408436244219566 8.023021554886896 0 0 0
147 2 16.84808363581197 7.660925331216197 1.194143729940336 0 0 0
248 2 7.467665950529634 8.344164336590302 0.611583476867742 0 0 0
584 2 2.889868593899865 0.9791384895367222 9.57604063077896 0 0 0
518 2 7.508629705615921 4.779629718922164 0.30255263444742136 0 0 0
777 2 6.300150411757486 11.054582018137484 9.632137820622109 0 0 0
305 2 12.234103217885348 11.093464790477297 2.95633565363268 0 0 0
133 1 15.71226006917413 3.656522976734809 6.553579293771362 0 0 0
301 1 15.538566902481643 11.038396923867223 6.608866372899007 0 0 0
16 1 5.627774089115316 4.840361372791 0.5231976450676147 0 0 0
104 2 9.654677410298014 3.629833814340952 0.3882183976148266 0 0 1
19 1 1.2174480133476204 2.5301828374313566 0.35015930249192245 0 0 0
84 2 3.234284541284472 6.7084041681560755 0.8986489814369635 0 0 0
103 1 10.318494778208832 2.863818845498117 0.5083105054480863 0 0 0
106 1 9.494983081872752 2.9144472220508453 9.612425073536748 0 0 0
274 1 9.569372481862045 10.4072214629471 9.659451227785935 0 0 0
521 2 2.3887395259840134 5.777617122758716 9.300565248591111 0 0 0
237 2 14.665739255991337 7.444496267967276 7.819238870614219 0 0 0
524 2 -2.7816419279344493 3.549776330984274 9.655847735975795 0 0 0
135 2 15.939654920732535 2.831404316548754 6.142299789430422 0 0 0
87 2 15.480159238488463 1.5580017620357158 4.124351194149762 0 0 0
134 2 15.250888147971446 4.212830825693262 5.872856453081781 0 0 0
253 1 15.308357430486083 8.650105520978125 5.153877339597449 0 0 0
254 2 15.60078238170804 9.437989567491021 5.672918949499198 0 0 0
331 1 15.845806607699773 8.942555235152781 0.34162855705681744 0 0 0
780 2 12.85761668166778 9.602162556613427 0.8198879308934123 0 0 0
187 1 1.0301825349783558 10.09425535784219 0.6249407379408711 0 0 0
189 2 1.9796880184997943 10.094049694212737 0.5826547489309444 0 0 0
190 1 0.5368079070806437 10.584794976134392 9.590060600074654 0 0 0
17 2 4.8826593269332355 4.215554345186454 0.32890055141157337 0 0 0
332 2 9.655919718245897 9.73472858867955 18.53741257466726 0 0 0
537 2 -1.1730639204946338 0.92256819799375 11.728776685656593 0 0 0
654 2 7.937627794252155 6.43192645072646 18.469380993451754 0 0 0
604 1 11.013612543469629 5.1403109444730255 10.022840987255988 0 0 0
740 2 -5.0179444205348505 7.722086343418194 18.484303851898872 0 0 0
621 2 7.661112099263079 1.1661292282957936 12.107117472416414 0 0 0
837 2 12.042377881764727 9.475686017620125 10.901223957972826 0 0 0
574 1 0.5396765967323645 0.6807785407316372 11.498904797194934 0 0 0
188 2 -5.777161149127043 9.787294169089346 18.832188439279236 0 0 0
528 2 -3.7770758150060533 3.2109718332981054 19.15208867208731 0 0 -1
333 2 8.769852093510034 8.534462602044382 18.76514151766171 0 0 0
691 1 -2.234190339147642 10.42796225584096 10.12221254782784 0 0 0
539 2 -3.6527891113332664 1.162798839958845 16.90038453451149 0 0 0
81 2 -0.07099634668847488 1.2645089636273672 18.91992058918258 0 0 0
573 2 11.675935510770794 0.45004744050171774 17.216700862864144 0 0 0
696 2 -2.2151979589773636 11.022847851271367 18.9907228779087 0 0 0
249 2 0.4698550880975919 9.71382138615633 18.46712420444853 0 0 0
15 2 4.087712552571828 5.052247340393524 9.803667289996039 0 0 0
505 1 2.9606070593606377 1.1809603291199342 14.27462209463881 0 0 0
506 2 3.2332803005685 1.9675479231276174 14.810379323715965 0 0 0
752 2 3.4000331769459655 9.697689347907671 10.795675664530073 0 0 0
508 1 0.11917107908962654 1.456230634990416 14.645911375592789 0 0 0
166 1 4.958644141500759 6.373443877690716 18.840471775508895 0 0 0
527 2 -2.7640164587425358 2.7312915420215242 18.107686564374276 0 0 0
511 1 -3.8985368602051094 6.8005693555775295 14.478218769144675 0 0 0
512 2 -4.057528865604208 5.9343079934290035 13.964575119593771 0 0 0
513 2 -3.875026376445692 6.4524565191240715 15.420576726616757 0 0 0
514 1 -1.205548847489345 6.612241551583268 13.793553613977938 0 0 0
515 2 -0.9676840731746235 5.883442668404767 14.429593618111104 0 0 0
516 2 -2.102845592585326 6.949577544006979 14.04920445830885 0 0 0
903 2 4.538571197309555 0.32896477356097764 10.55480661258429 0 0 0
519 2 1.733641211538799 5.706621256222759 18.157953000374892 0 0 0
828 2 8.57957647069666 8.34754986114304 11.749970474062657 0 0 0
522 2 2.393987228414566 5.6785746162599064 10.794858476541616 0 0 0
164 2 8.80539036946164 1.1241233475566095 18.736591324578526 0 0 0
776 2 7.71443214587168 10.51671850148345 9.829842332079268 0 0 0
191 2 0.7330582971562529 9.775382213939181 10.16677017170143 0 0 0
798 2 9.503694287720444 9.667187549665782 16.04628674917299 0 0 0
714 2 1.7314313909131809 10.936478715781794 16.875093313234125 0 0 0
529 1 1.3227400564524696 6.694840982227622 16.831399173420735 0 0 0
530 2 1.3921297606789171 6.21150898093133 15.975318955831353 0 0 0
531 2 0.378405971196653 6.88930415825893 17.016273245759105 0 0 0
532 1 2.418542803591286 6.609169531482938 12.351535718436049 0 0 0
533 2 3.3870241707133024 6.81506577640229 12.202412042023024 0 0 0
534 2 2.3521560474506558 6.283825068638528 13.29018855646522 0 0 0
535 1 -2.0217612359349864 1.354954402927269 12.040739867362937 0 0 0
536 2 -2.735212290447955 0.752888781529668 11.75084918368558 0 0 0
105 2 3.4274687633050145 2.419867593115289 18.851328799396917 0 0 0
538 1 -2.714464086237282 1.4991061222272068 16.758524296013942 0 0 0
906 2 -1.4388136660500332 0.5500952161915681 17.38704494873954 0 0 0
540 2 -2.6979700323645046 1.9305275615514537 15.91097107021478 0 0 0
541 1 2.894189243067984 3.0818924807080514 12.039984813462214 0 0 0
542 2 2.93372135313245 2.279697204668928 12.62542254994144 0 0 0
543 2 3.1770294784193878 2.738702040749248 11.162428358959998 0 0 0
544 1 0.7524716699529588 3.003216600313943 16.742986185856736 0 0 0
545 2 0.8428340617337806 2.5483113237160566 17.63964289140764 0 0 0
546 2 0.41481343134544524 2.3273014618960084 16.11174700208203 0 0 0
547 1 -3.640527135822631 5.516027523351699 16.715348462795355 0 0 0
548 2 -4.291807980699429 4.804723340020941 16.59977704274178 0 0 0
549 2 -3.6937420247239845 5.802866176022956 17.665926541116573 0 0 0
550 1 -1.615613075597034 4.961938397089609 11.799713197149165 0 0 0
551 2 -0.9356383354431654 4.333962541646396 12.172723203907214 0 0 0
552 2 -1.5663994182534309 5.699340293995235 12.490295324493154 0 0 0
553 1 3.3185791698967813 3.389302271082415 15.77691263993809 0 0 0
554 2 2.56911809463351 3.2271277885560905 16.36725608218713 0 0 0
555 2 3.951164602713971 3.7959873750562445 16.4155509285427 0 0 0
556 1 0.29285498923407294 3.521889056153814 12.98899063368088 0 0 0
557 2 1.0745256464231414 3.2317748819863055 12.48461164377223 0 0 0
558 2 0.06789362185426429 2.709736805422686 13.48848693952782 0 0 0
559 1 -3.9699910549084545 4.693008325757826 13.072563360592138 0 0 0
560 2 -3.1969608872779403 4.73279724486075 12.42799570702548 0 0 0
561 2 -3.637455129820528 3.9068176730269464 13.583335411591674 0 0 0
562 1 -1.1808233289756285 4.7057130256939725 15.609571795892405 0 0 0
563 2 -0.47446463953977686 4.333294370676269 16.216285363664163 0 0 0
564 2 -1.9411034759704329 4.89528201825423 16.218829054102056 0 0 0
565 1 4.958537184729364 7.41461318069499 11.380465472496477 0 0 0
743 2 0.2628118794229035 7.622811887399191 10.345258193554796 0 0 0
601 1 10.818717810287797 5.0001989809568865 19.114954954193653 0 0 0
568 1 -1.0387765968548262 7.327618898948428 17.73755936359034 0 0 0
603 2 10.913758341019658 5.428526586623125 18.233083039735167 0 0 0
835 1 12.374459028459029 8.912741718715173 10.091917509705894 0 0 0
588 2 -1.0981807932899845 5.812634133635856 10.491458347094637 0 0 0
572 2 -5.718563063780595 1.4427784637076135 18.334264308565025 0 0 0
827 2 10.108572660883626 7.839761467114383 11.859945548377077 0 0 0
805 1 12.149363512297482 11.125610650515226 15.724628799054077 0 0 0
576 2 0.8067877922421816 1.394118460074232 10.880929806991002 0 0 0
577 1 1.833493967488613 5.22527681203498 14.506718982521816 0 0 0
578 2 1.079173554365129 4.838928339984152 14.013705803152725 0 0 0
579 2 2.3308501328041826 4.463886287675323 14.82425741335762 0 0 0
580 1 -2.5767727560908438 2.6560624310112955 14.166836309607216 0 0 0
581 2 -2.2049422621553627 2.2040135464396298 13.371116502275024 0 0 0
582 2 -1.9413251271677874 3.3867547925425323 14.474798246458715 0 0 0
721 1 3.515045267576071 11.271302722906762 15.852808488781752 0 0 0
509 2 -0.34946794092914263 0.6358133785057896 14.355292106289145 0 0 0
589 1 12.120517591818933 1.1968002696913203 14.238212645305909 0 0 0
655 1 3.7749111355526144 0.8119299400396273 17.808413117044097 0 0 0
591 2 12.599724088899386 1.8378446855227308 14.84566427549769 0 0 0
592 1 9.404738160297702 1.2466064995303345 14.648818399777 0 0 0
826 1 9.466885102786408 8.317130005805106 11.264669602096028 0 0 0
594 2 9.108403924423948 1.9658582061744772 14.098972155664748 0 0 0
595 1 4.860729881138992 6.739247344065865 14.758234314201927 0 0 0
596 2 4.906195196507823 6.132519653068602 15.53814041525657 0 0 0
597 2 4.649560493961105 6.164989566678423 14.009387245762834 0 0 0
598 1 7.539188176427437 6.767715932327297 14.595409111943727 0 0 0
599 2 6.551406741183363 6.8513092241456635 14.69316888649301 0 0 0
600 2 7.6670545860895825 6.467487007486981 13.67052852080892 0 0 0
834 2 5.765463119752781 10.723035196884023 14.053913788774922 0 0 0
271 1 3.4905206061519514 10.663520896370205 19.1207634610787 0 0 -1
809 2 10.061976034893624 10.711187337673191 12.589852457664565 0 0 0
605 2 11.046761727901403 5.487875839863313 10.95598321507856 0 0 0
832 1 6.372539963070835 10.24033887466152 14.632178526257817 0 0 0
711 2 2.1887979405757356 10.730093497549433 12.299946007570414 0 0 0
825 2 3.125417697259192 9.086639003018515 18.271664085991002 0 0 0
510 2 1.0740273321736622 1.3107307062767644 14.496688486657884 0 0 0
566 2 4.555768500579078 7.976301145419655 10.672590922661103 0 0 0
611 2 6.541808294185515 2.6622005258367594 18.103504605721827 0 0 0
613 1 10.341205068175194 6.554121373442667 16.871212085849564 0 0 0
614 2 10.988654703567674 7.27595832045905 17.045128399404845 0 0 0
615 2 9.461522006987137 6.878743139124723 17.102828046130867 0 0 0
616 1 11.089524703209236 6.435591382280684 12.288455060809094 0 0 0
617 2 11.122966564003846 5.938470659069476 13.111002052089825 0 0 0
618 2 12.008325954911992 6.591166458122489 12.013059329284554 0 0 0
619 1 6.724137495464723 1.4294924167078666 12.218318323098872 0 0 0
609 2 6.487860005985683 2.4461104264938958 10.850795478790046 0 0 0
669 2 11.801162489077633 2.2458543433403064 10.65939842938726 0 0 0
622 1 5.999864888218244 1.5607335016799788 16.571569316548846 0 0 0
808 1 9.262460388593611 10.960793342810392 13.073470656769299 0 0 0
624 2 5.898510472690563 1.9574386670827026 15.650986175347352 0 0 0
625 1 11.517564602250506 3.0177017064811595 12.206217619974876 0 0 0
626 2 11.757287165964366 2.3721346044257055 12.952228323066366 0 0 0
627 2 12.212642489692769 3.7405997685853203 12.318434507498067 0 0 0
628 1 10.0014446130463 2.7740771485544227 16.871457118254558 0 0 0
629 2 9.725990328699396 2.553407600305823 17.72834658074616 0 0 0
630 2 9.817298566405174 2.0845903070822915 16.211881069152522 0 0 0
631 1 5.436142926246661 4.816296582527568 16.79086655301301 0 0 0
632 2 5.337387143470692 5.314697889669084 17.648079580407135 0 0 0
633 2 6.365792692482081 4.501045508212393 16.787901880935966 0 0 0
634 1 7.353009489898934 5.221707306108562 12.298593559395956 0 0 0
635 2 6.413423823348042 4.929213553454679 12.23785841587487 0 0 0
636 2 7.634091606310342 5.6760288077532435 11.452271471114976 0 0 0
637 1 12.449868021435325 3.6692267897377975 15.966705289746603 0 0 0
638 2 12.03052052427404 4.240212566403205 15.297585081512247 0 0 0
639 2 11.672566888570824 3.24905611125424 16.3599523965284 0 0 0
640 1 8.977020244009513 3.2123799659803036 13.029482001300728 0 0 0
641 2 8.395857597558551 3.7520516660666425 12.468967566314811 0 0 0
642 2 9.799109521469898 3.0567700143252767 12.512097896626223 0 0 0
643 1 4.878847795136905 4.757970429280826 12.863592493977194 0 0 0
644 2 4.081562447011736 4.302980215403997 12.519622358057354 0 0 0
645 2 5.136184912720206 4.1444215279255525 13.558487915993181 0 0 0
646 1 7.948248943493471 4.244222175011907 15.912709117307163 0 0 0
647 2 8.759460147241747 3.8111475981330556 16.220766321192546 0 0 0
648 2 8.101441010015275 5.110802980167624 15.49193906345901 0 0 0
649 1 13.794469987254795 7.171276182143395 11.342272064673182 0 0 0
650 2 13.396501485360512 8.00444702948252 10.956667161347525 0 0 0
651 2 -3.335142270016443 7.4098689788439245 11.937862964379761 0 0 0
652 1 8.074119011512032 7.180645362110496 17.83376386191194 0 0 0
653 2 7.266478818120052 7.3012228699798385 17.332558116816763 0 0 0
168 2 4.21496960959035 6.98019016032029 18.64548770617628 0 0 0
520 1 2.591734150222758 5.136393783195134 9.990380551486043 0 0 0
275 2 9.752192142192536 9.581144443713097 10.199711572212253 0 0 0
661 1 10.744991940220766 5.199086590885663 14.663034430704206 0 0 0
662 2 10.419730708795306 5.8923613891601425 15.322212111872549 0 0 0
663 2 10.01366336809251 4.520416788593694 14.52149734427195 0 0 0
664 1 6.1565604141250025 2.821355906757872 14.385747420162126 0 0 0
665 2 6.866847731155771 3.3873517381793388 14.626067606127775 0 0 0
666 2 6.494401245672644 2.254169093449973 13.632243738048745 0 0 0
608 2 6.178653697557396 3.6700555755203106 9.888169572890298 0 0 0
796 1 9.715897416024639 10.33600434976897 16.74254133953386 0 0 0
667 1 12.22408471658374 1.7036410310419385 9.972407294573806 0 0 0
673 1 3.1297372908431593 8.807917932738285 14.503739481912538 0 0 0
674 2 3.6778001055668152 7.952208621601826 14.70602204782855 0 0 0
675 2 3.2621782701320825 9.468929882146302 15.220649964855946 0 0 0
676 1 0.1161247773459611 9.094583790110583 14.609231789446271 0 0 0
677 2 1.0493184226074599 8.838148692931375 14.527271023030073 0 0 0
678 2 -0.4039235689737915 8.278624071462287 14.402418383640393 0 0 0
525 2 -2.196403633876026 2.3538903317384112 10.489558154442657 0 0 0
98 2 14.085994581626313 5.706537435841905 10.198600723154247 0 0 0
749 2 -2.0386626048009315 10.845254581666154 14.92695141070146 0 0 0
807 2 12.458613087904828 10.379060573616371 15.210158904121986 0 0 0
695 2 -2.9012990354050667 9.72612772237916 18.321995371358547 0 0 0
672 2 8.70181796076434 7.025331097982279 10.2115326497905 0 0 0
703 1 -1.9222845272221218 8.873661701013177 12.308037213513858 0 0 0
704 2 -2.174008277603889 9.48704170668028 11.539751896301674 0 0 0
705 2 -1.0949548198392747 8.469300423958698 11.989321120949434 0 0 0
706 1 -3.254817850375581 8.910379268588587 16.749367055194835 0 0 0
707 2 -2.9960183733103594 9.38454433062032 15.905395271388008 0 0 0
708 2 -2.545575605942033 8.182590044286323 16.78281295267236 0 0 0
709 1 3.144664299959032 10.36837679668524 12.2420340035392 0 0 0
710 2 3.188687242581113 9.685023227102723 12.990393656504112 0 0 0
795 2 12.114506788830827 9.67182478757048 12.852218111716661 0 0 0
712 1 0.9101493651286785 10.494588555488775 17.047453782428537 0 0 0
713 2 0.7232606579597949 9.993308049034969 16.243359813087753 0 0 0
571 1 -5.393078767218536 0.7700798283104604 17.695407297143298 0 0 0
569 2 -1.2114707997672503 6.56436557152227 18.31732026348551 0 0 0
797 2 10.588529990141184 10.605548705149626 16.42349775652596 0 0 0
724 1 0.6383177014479158 11.089478027664315 12.885694794882863 0 0 0
726 2 0.3393917558616647 10.340031191554102 13.441053709641322 0 0 0