LAMMPS data file via write_data, version 3 Mar 2020, timestep = 6350000

2016 atoms
2 atom types

0.0000000000000000e+00 1.7914424303504283e+01 xlo xhi
-5.6132055345231535e-01 4.5557480530364487e+01 ylo yhi
0.0000000000000000e+00 1.9054319675334934e+01 zlo zhi
4.3223496000521208e-02 -6.6620690181005813e+00 -2.3003084232840365e-02 xy xz yz

Masses

1 16
2 2

Atoms # atomic

579 2 -4.2624821166399407e+00 1.5039729816656364e+00 1.8058104395636398e+01 0 0 0
552 2 6.7705145466051260e+00 4.7895533730606852e+00 5.5501860536860859e+00 0 0 1
175 1 6.9894752511685327e+00 9.3248677755003229e-02 1.7201743475207611e+01 -5 0 1
391 1 1.1361872372636077e+01 8.8535654839436582e+00 1.6315878374871118e+00 -2 0 -1
997 1 1.2358303124051693e+01 6.2369807507352650e+00 5.7559586020748077e-01 -3 0 3
761 2 6.4800587812110262e+00 8.1681978395876920e-01 1.4413465410229642e+00 -3 0 2
1665 2 1.1363914286692605e+01 7.2235966675478700e+00 7.6620254948868736e+00 -3 1 -1
1079 2 9.4354472738378927e+00 8.6912238610344499e+00 5.0709178019483510e+00 -1 1 0
917 2 2.3109675739543514e+00 -1.2040316288144087e-01 4.2076705595688102e+00 1 0 3
302 2 -3.3094978484713753e+00 5.7060686581761288e+00 1.6697975860947125e+01 0 0 -1
152 2 1.1944405453616907e+01 8.0680486712179267e+00 2.7695976551545129e+00 3 0 0
173 2 9.7145897684078406e+00 3.8422439018700461e+00 1.5449841966823678e+01 -1 0 -2
737 2 7.7393096635729464e-01 1.4004882884228114e+00 1.8623092581227137e+01 -1 0 0
406 1 1.1917402469652860e+01 4.8059448436959515e+00 1.0672722700322430e+01 -3 0 -2
709 1 -3.1371992970387779e+00 4.4760896447419443e+00 1.3527811316800651e+01 -3 0 -2
605 2 5.0901003616103564e+00 3.9571707533542511e-01 1.7720319884113259e+01 0 0 1
468 2 -1.0438777964715120e+00 8.6290548130937204e+00 1.2304979456984054e+01 -1 0 2
777 2 9.3585695307636350e+00 2.9707998716457107e-01 3.4762563365592176e+00 -2 0 2
881 2 9.7366054599448635e+00 3.2427604888858950e+00 9.3846307754484162e+00 -3 0 2
319 1 1.0176783827598733e+01 1.0742603141845450e+00 1.5773576408235716e+01 -4 0 -3
53 2 1.0123852279327160e+01 6.3380562203179274e+00 1.0471489626892655e+01 2 0 -1
291 2 1.9321806097519429e+00 2.4315047725477226e+00 1.4085110978629327e+01 0 0 2
609 2 5.4224738972299500e+00 1.9950566195598487e+00 4.9424904966536651e+00 -3 0 0
1583 2 1.0381113904500735e+01 1.8071795480279826e+00 1.2744821647179126e+01 -1 1 1
122 2 8.6932102186064206e+00 5.4128790086145715e+00 1.8465392542123045e+01 -2 0 -1
541 1 1.4796798317428145e+01 7.9806214662206241e+00 7.8714654263117207e+00 -1 0 1
407 2 1.1307178076514184e+01 4.0782043672570847e+00 1.0657938757482331e+01 -3 0 -2
230 2 1.6803076689135699e+00 1.2683716379974226e+00 7.0724157910884440e+00 0 0 -2
241 1 9.3607172671820003e+00 5.9596819443843634e+00 1.5340878697082985e+00 2 0 1
448 1 1.1685238743304405e-01 5.0057735207791598e+00 7.9191935774884650e+00 -1 0 1
764 2 9.8132957512511165e-01 6.2016255783823757e+00 1.3161430238374852e+01 -3 0 -4
561 2 8.7916537010454334e+00 1.7364097551028390e-01 8.9075188977754980e+00 -2 0 1
504 2 3.1656837808687559e+00 6.3095935623713872e-01 1.1043227178442258e+01 0 0 -1
1006 1 1.3658615677664860e+00 1.0519808225518767e+01 1.2614247494932217e+01 -3 0 -3
926 2 -4.0592813683345597e+00 6.0217829810636103e-01 1.4142592432166571e+01 2 0 2
301 1 -3.3035224170030419e+00 6.1658933331310912e+00 1.5840809155266925e+01 0 0 -1
177 2 7.1886466525854678e+00 9.1438046018729136e-01 1.6736825953050325e+01 -5 0 1
172 1 8.8189791871627925e+00 4.2090108677390354e+00 1.5435361235597947e+01 -1 0 -2
841 1 -1.8387744913811694e+00 3.5766162844603100e-01 1.7324454488208726e+01 -5 0 -5
449 2 7.8670758929783480e-01 4.5698560309289409e+00 8.5223395700600957e+00 -1 0 1
875 2 -2.1567845104152372e+00 1.0429220520828641e+01 1.5420877004808924e+01 -2 0 1
540 2 1.4594471491911962e+00 2.0052007879326408e+00 4.4514329456179222e+00 -4 0 -3
741 2 -5.3064354893276384e+00 9.0903358823846272e+00 1.8544712275499975e+01 1 0 1
543 2 1.4757997339560951e+01 7.1168522030494321e+00 8.2663298251963759e+00 -1 0 1
206 2 4.1710712261287819e+00 2.0544571878121736e+00 1.6589288122029735e+01 3 0 0
320 2 9.4612057635908489e+00 4.6818491340845703e-01 1.5404904535327145e+01 -4 0 -3
974 2 2.4820507254688247e+00 1.0372393204869804e+01 7.1439690286932258e+00 -3 0 -1
669 2 6.0272656596164156e+00 1.0108996025849368e+01 1.4708100834396985e+01 -3 0 -3
781 1 9.6869924668363900e+00 2.1985736959649418e+00 1.8231017063806121e+01 -3 0 -3
880 1 1.0551335965275982e+01 2.8595274359740865e+00 9.7926180724251619e+00 -3 0 2
626 2 3.5742118407720032e+00 7.5963603696812552e+00 1.7797851561486070e+01 0 0 -1
193 1 1.1730855288168975e+01 4.2805878773816151e+00 1.5508829364359693e+01 -4 0 -3
578 2 -3.3113110084173107e+00 4.8092478427989716e-01 1.8644209113160919e+01 0 0 0
382 1 7.2226250895612916e+00 2.9217396996361162e+00 1.8930352420307905e+01 -2 0 0
533 2 2.8864458637909101e+00 8.3380407203715379e+00 1.5280150937536915e+01 -1 0 -1
528 2 9.0024187408936616e+00 5.0560057422046656e+00 9.1630650191758480e+00 -2 0 -1
54 2 8.7519180644943084e+00 6.7371228022458256e+00 1.0982848440016481e+01 2 0 -1
807 2 4.8962632043002268e+00 1.0319570535228788e+01 9.6689702674641289e+00 -4 0 0
991 1 1.2677384282430433e+01 3.8363166308475671e-01 1.1042015814198496e+01 1 0 1
977 2 7.7022878689832162e+00 2.8346030953003374e+00 1.5675548257502802e+01 -3 0 -1
409 1 1.0627855928785040e+01 1.0514333734397852e+01 7.3203504753584507e+00 -1 0 -2
72 2 9.3165260402233407e+00 1.0018465955401830e+01 4.2232457392716780e+00 -1 0 0
52 1 9.2598236309115638e+00 5.9862892532973238e+00 1.0674825926101272e+01 2 0 -1
730 1 1.4056394605431432e+01 8.8644593295619369e+00 5.2616253661154095e+00 0 0 1
310 1 6.2504272195036625e-02 8.5226243695082591e+00 3.1153405324341832e+00 0 0 -2
712 1 -2.3981092006078670e+00 1.0067326365040583e+00 1.3655530862126295e+01 0 0 3
885 2 4.8023876688749452e+00 8.3153406328399218e+00 1.3923937270217849e+01 2 0 -1
497 2 5.6300904304070443e-01 7.5285326220498057e+00 6.1893488721853824e+00 0 0 1
270 2 1.3620398128183263e+01 7.2981373019110665e+00 6.3450903774851408e-01 2 0 0
604 1 4.2053597595553267e+00 6.9067628695334693e-01 1.7928060254567939e+01 0 0 1
874 1 -1.6916492139360852e+00 1.0267573839552336e+01 1.4564994713997253e+01 -2 0 1
993 2 1.3015409593106163e+01 6.2332484954817269e-01 1.0185325655876976e+01 1 0 1
618 2 1.3642083976027909e+01 9.9567886277500026e+00 9.9881244735171997e+00 -2 0 -2
625 1 4.1461511667369058e+00 8.3642301959071528e+00 1.7970492834035401e+01 0 0 -1
268 1 1.4252303251945829e+01 8.0795663697051676e+00 6.7681216706336755e-01 2 0 -1
101 2 3.7240579386550023e+00 5.6115957465886908e+00 9.6135906894388015e+00 -1 0 -1
384 2 6.5647458920122688e+00 3.3387077338450291e+00 1.8340589287650747e+01 -2 0 0
153 2 1.1435018419945099e+01 7.0215335009591717e+00 3.8297784815165441e+00 3 0 0
231 2 1.4371197257756911e+00 -2.6964356382487059e-01 7.0541038433167405e+00 0 0 -2
1490 2 9.8821245989161675e+00 9.0251722251468820e+00 1.6222890729699824e+01 -4 0 -2
130 1 -4.0634507924343701e+00 6.6919947653202483e+00 1.2316597615275553e+01 0 0 0
328 1 -2.6921935686057008e-01 6.3958856750624333e+00 1.8127670139564568e+01 -1 0 -1
713 2 -1.8198850049909394e+00 1.9174903385909403e-01 1.3571502511592916e+01 0 0 3
884 2 3.5417489609729911e+00 7.7701227917564673e+00 1.3351698474819674e+01 2 0 -1
844 1 6.8280743461509514e+00 1.0209122021518773e+00 1.3135944801846421e+01 1 0 1
600 2 3.4962389337043831e+00 5.2681078765039047e+00 5.6142855693567304e+00 -3 0 1
49 1 4.4692311904264610e+00 2.6139281083204402e+00 1.2372549797163506e+01 -1 0 0
776 2 1.0297786754432881e+01 1.2736194853882583e+00 4.3031674370903525e+00 -2 0 2
642 2 4.7087409631040522e-01 6.6527559428673673e+00 1.0712903658194170e+01 4 0 -1
702 2 1.3676239598076203e+01 2.7221042669075257e+00 4.0432254500186247e+00 -3 0 -2
260 2 -2.9215323127511383e+00 2.7018654166229075e+00 1.6084068852965505e+01 -1 0 -1
945 2 1.0946395853934412e+00 3.6559945768867124e+00 5.8301296690101694e+00 0 0 3
612 2 6.8185373673989087e+00 6.9989604974322202e+00 8.1284901266712435e+00 -1 0 1
167 2 4.6919950896176790e+00 1.0787722306898532e+01 4.4946296263131655e+00 -4 0 -4
763 1 1.8621741723705947e+00 5.7709672060876622e+00 1.3147128023860729e+01 -3 0 -4
598 1 3.7232053302522514e+00 4.6646934840576684e+00 6.4069223290062904e+00 -3 0 1
242 2 9.4796140300252389e+00 5.3207087807922635e+00 8.2737405682661680e-01 2 0 1
82 1 1.2518134812754452e+01 5.9051077958863925e+00 8.0212908682075774e+00 -1 0 -2
573 2 1.1535384224574351e+01 -4.8824533067422821e-01 3.8622100165195703e+00 2 0 4
441 2 -4.3744310123562844e+00 7.2281288790423028e+00 1.5658560720642550e+01 -2 0 -1
789 2 -1.4097446586035611e+00 5.3746532911213452e+00 8.5853078411732469e+00 -2 0 -1
119 2 1.0407511983496212e+01 1.3942099744639054e+00 2.1550996453914681e+00 -2 0 -2
603 2 6.6767400773547685e+00 9.2356890621292198e+00 8.0791773389122721e+00 -3 0 -2
803 2 1.0000651319842193e+01 6.9097484253441177e+00 5.8606697039890321e+00 -2 0 -1
161 2 8.1016630546125867e+00 7.7167931947477619e+00 1.2808961759540759e+01 0 0 -6
311 2 -9.4816699674942861e-01 8.4932880151099823e+00 3.0665876496992883e+00 0 0 -2
212 2 1.0218412698403494e+01 4.5165898071537844e+00 4.4805572482996148e+00 -5 0 -2
181 1 9.1977539168624336e+00 1.0008521187914059e+01 2.4857168563734819e+00 -1 0 0
611 2 5.2819373686450524e+00 6.4310291631559062e+00 8.0187916507341583e+00 -1 0 2
996 2 6.3288246369565231e+00 5.2128814846730407e+00 1.2709038401866342e+01 3 0 0
650 2 6.3024651898776902e+00 1.0425658616467068e+01 1.5292412257191956e+00 -3 0 0
127 1 -2.8656662240167297e-01 6.9333019945788799e+00 1.4448312344551226e+01 -2 0 -2
266 2 -6.7257950297102909e-01 1.0118219943746460e+01 1.0065877480380756e+01 1 0 -3
735 2 6.1283757247393362e+00 6.5932488764141253e+00 1.6059314979022883e+01 -3 0 -2
93 2 -3.8946818237881407e+00 1.0345326306982606e+01 1.2188501201763071e+01 0 0 0
827 2 2.1140965267739400e+00 3.1976512114162658e+00 1.8279664623147287e+01 0 0 0
627 2 5.0437314596962333e+00 7.9990138737906715e+00 1.7763129036328245e+01 0 0 -1
390 2 1.3356038174488909e+01 2.5225836397931287e+00 8.6930644555441905e+00 -1 0 0
481 1 1.0415852509564257e+01 8.9857310577423100e+00 1.5418191521437590e+01 -3 0 -2
733 1 6.5472979953142003e+00 7.2706818909490156e+00 1.6688368821776969e+01 -3 0 -2
535 1 9.0859675332025986e+00 6.5821503166799840e+00 1.4023358047864990e+01 -4 0 1
86 2 1.6990547050254222e+01 2.5575003630548176e-01 1.5707718116455773e+00 1 0 -2
118 1 1.0736289047103984e+01 1.7761529450543794e+00 1.2691828294606209e+00 -2 0 -2
83 2 1.2320474908419705e+01 5.6478210292012063e+00 8.9473856798910774e+00 -1 0 -3
1582 1 7.3582803002329635e+00 6.0523783325871827e+00 4.0835752623742350e+00 1 0 0
742 1 2.4853047260178043e+00 1.0584941301081118e+01 1.7846913570925949e+01 2 0 0
644 2 9.5723725551290357e+00 3.5168152636384509e+00 1.3021122863678785e+01 -4 0 -3
516 2 8.3071876179259405e+00 9.0010725607426139e+00 9.0214493205341935e+00 -1 0 -1
162 2 8.5375835687744512e+00 8.7239860589484781e+00 1.1779982875763542e+01 0 0 -6
239 2 1.4263499339468426e+00 4.1049237052439782e+00 1.5685834541562587e+01 0 0 0
716 2 1.0300148068551427e+00 5.6847147522392607e+00 2.7265558165496775e+00 2 0 2
717 2 1.9864832682435225e+00 6.4067536311580566e+00 1.6475877337963367e+00 2 0 2
240 2 3.0823024496602507e+00 3.8229386242887529e+00 1.5709549377161849e+01 0 0 0
688 1 4.6884144272611490e+00 1.3137214299367792e+00 6.3591697239723723e+00 -2 0 0
812 2 1.4113204174827334e+01 3.7036313183506389e+00 6.1779139056519909e+00 -2 0 -1
329 2 -5.2706034298222448e-01 7.2775344100846331e+00 1.7722388250267134e+01 -1 0 -1
142 1 1.4366931769413547e+01 5.9969324269064632e+00 3.0542641939598942e+00 1 0 -1
645 2 9.2009286163472801e+00 4.5342255293853251e+00 1.1924187188569579e+01 -4 0 -3
483 2 1.1217501029757347e+01 8.4622135666580185e+00 1.5547548235887767e+01 -3 0 -2
216 2 5.6499515996311347e+00 8.4996742936719123e+00 5.1787627152776849e+00 -1 0 -2
238 1 2.3506259112894963e+00 4.4511293305999500e+00 1.5582230594751062e+01 0 0 0
522 2 8.1344843775885209e+00 2.6819140264439461e+00 1.1244945254996326e+01 -5 0 -2
715 1 1.0765820936986508e+00 6.3120709740864926e+00 1.9547157440308851e+00 2 0 2
115 1 1.4836122506548710e+00 3.1917581168790510e+00 9.8828797160098514e+00 -4 0 -5
182 2 8.8111771175146512e+00 1.0731070336786344e+01 2.0325599564670549e+00 -1 0 0
160 1 7.9300156236050192e+00 7.9942301972348133e+00 1.1892048337986557e+01 0 0 -6
690 2 5.1807920100261189e+00 5.1121546654374517e-01 6.7635455954026691e+00 -2 0 0
992 2 1.2949493333347126e+01 1.2268317072214652e+00 1.1523724592096993e+01 1 0 1
933 2 3.1791079779698848e+00 3.8180325059561477e+00 2.3144591661750589e+00 -2 0 0
769 1 8.3943320849958099e+00 1.0540601626000720e+01 9.8443612235380797e+00 1 0 -3
985 1 1.1639542175956423e+01 7.7031269226454366e+00 1.0837925066172758e+01 -3 0 -3
721 1 -6.3556617428025053e-01 3.7653458050877378e+00 1.2781223268391273e+01 -5 0 -3
883 1 4.0781188465667890e+00 7.6649676048574928e+00 1.4147834300474356e+01 2 0 -1
186 2 4.4560368677762074e+00 -2.0792525576822268e-01 1.7804364200269485e+00 -4 0 -5
701 2 1.4436969334469129e+01 1.8538003426817720e+00 5.0883350460847225e+00 -3 0 -2
785 2 9.2652859970232058e+00 1.7915612473889144e+00 6.2670601541870292e+00 -3 0 -2
924 2 3.0486389324776528e+00 2.4807105274175729e+00 8.9482738471606158e+00 -4 0 -3
211 1 1.0203666560800798e+01 4.2944193216880064e+00 3.5899089221643217e+00 -5 0 -2
929 2 3.2908411445080166e-01 8.2631610366069079e+00 9.3499152916499160e+00 1 0 0
987 2 1.1908918008230540e+01 8.3133583049362869e+00 1.0150964713354503e+01 -3 0 -3
643 1 8.8219283881526565e+00 3.8437622029128287e+00 1.2475880393461770e+01 -4 0 -3
229 1 1.6911590921205546e+00 5.0542896405135984e-01 7.6568462712279342e+00 0 0 -2
700 1 1.4493768637763534e+01 2.6667222553794288e+00 4.5536748360811874e+00 -3 0 -2
765 2 2.1156299132624872e+00 5.3613026710887297e+00 1.3960463579452570e+01 -3 0 -4
116 2 2.2215963831410757e+00 3.5568587841429604e+00 1.0429698214997927e+01 -4 0 -5
857 2 -2.1564776888134940e-01 5.1962043972428420e+00 1.5285718169007913e+01 -1 0 -4
845 2 6.9387116320655187e+00 1.3224632540153927e+00 1.2132609696546709e+01 1 0 1
514 1 8.0269170424412728e+00 8.1436534949255162e+00 8.7814384932570722e+00 -1 0 -1
117 2 1.3658677198310758e+00 2.2313802915306988e+00 1.0274602784541852e+01 -4 0 -5
931 1 3.9838283243057351e+00 4.1539054016350025e+00 2.8303530762534872e+00 -2 0 0
279 2 1.3191282424211510e+01 1.5735856171698070e-01 5.7313063857476738e+00 -5 0 -1
437 2 4.7711400708035869e+00 9.1419026576805695e+00 2.8475188647752749e+00 -2 0 -2
734 2 6.8917969485071380e+00 7.9875442441698610e+00 1.6127096216421588e+01 -3 0 -2
961 1 1.2809413336771582e+00 9.8932035731797674e-01 1.5506335576672670e+01 -3 0 -1
42 2 5.8036465884721897e+00 4.7903343233809625e+00 1.4608572021385852e+01 -2 0 3
726 2 1.2352780146467845e+01 2.5590476089194660e+00 1.3148623501793878e+01 1 0 1
277 1 1.3766549318981120e+01 7.1247165995886541e-01 6.2228441697797390e+00 -5 0 -1
640 1 1.2917308967940011e+00 7.1001505107578513e+00 1.0326365135766460e+01 4 0 -1
1002 2 5.3215382171201515e+00 4.6675463681685452e+00 1.6824989960023462e+01 -1 0 1
128 2 2.9466945717144721e-01 7.4281800035191932e+00 1.5012731878144310e+01 -2 0 -2
5 2 2.9294889189590663e+00 5.2701047933715515e+00 1.1723719455040634e+01 1 0 0
41 2 4.6358909771926262e+00 5.9065382060526446e+00 1.4801767817365223e+01 -2 0 3
836 2 3.7899546506691353e+00 9.0094369695385339e+00 5.9743290608343322e+00 -1 0 1
19 1 3.0995083193974171e+00 8.5204669381846063e+00 1.1882778204506776e+01 -2 0 -3
932 2 4.4347265782759413e+00 3.3680107416995915e+00 3.2511851775471126e+00 -2 0 0
548 2 1.3461052160206616e+01 3.9729964153932071e+00 1.0385821361589814e+01 -4 0 -4
213 2 9.4115760966192337e+00 3.7235911132176032e+00 3.4791937302576663e+00 -5 0 -2
290 2 2.8283591730935047e+00 2.6169750033464561e+00 1.2888574062047066e+01 0 0 2
392 2 1.0554860158850843e+01 9.4144299704253811e+00 1.9243231142709929e+00 -2 0 -1
739 1 -4.4690610309838350e+00 8.7131876704139319e+00 1.8159511767206855e+01 1 0 1
938 2 7.2348302400581321e+00 3.7659946054847522e+00 2.2782012026569061e+00 1 0 1
969 2 -1.1504763227339847e+00 1.6872919861718128e+00 1.0517928545417911e+01 -1 0 1
545 2 1.2064552493606065e+01 3.8673997553962742e+00 2.9182246251362898e+00 2 0 2
539 2 1.4916773861423822e+00 1.8087240234110071e+00 2.8144508087229791e+00 -4 0 -3
937 1 7.9261943587805819e+00 3.1454667949430468e+00 2.7170583008816314e+00 1 0 2
40 1 5.2568639955225107e+00 5.2898795130306446e+00 1.5267474590492959e+01 -2 0 3
786 2 1.0555374561360914e+01 2.5681376614137101e+00 6.2646047386370691e+00 -3 0 -2
904 1 3.4822182391735548e+00 7.2018807227244901e+00 7.2187647136222111e-01 -2 0 2
724 1 1.3273725647959044e+01 2.4335550197859663e+00 1.2816552096149218e+01 1 0 1
784 1 1.0195693046924156e+01 1.6782496356213104e+00 5.9899147046888492e+00 -3 0 -2
967 1 -1.8251595402828955e+00 2.0676816223379695e+00 1.1104378957822725e+01 -1 0 1
553 1 -8.6684421115070642e-01 8.4176883111131069e+00 5.7604495559761562e+00 -4 0 -1
330 2 -5.2820214580320268e-01 5.7035082189787571e+00 1.7449422733166486e+01 -1 0 -1
269 2 1.4530302458422224e+01 8.3567005553620426e+00 1.5710504218020669e+00 2 0 0
752 2 9.7377665438863925e+00 4.5318168107117929e+00 7.0303865892877981e+00 -1 0 2
51 2 5.3006756133509381e+00 2.9765588447833968e+00 1.2727470051065165e+01 -1 0 0
36 2 1.8721261791321275e-02 3.9507239284270224e+00 3.8076402587555709e+00 -1 0 0
748 1 1.1499304652907508e+01 5.6532489584722896e+00 1.3194190019683484e+01 -3 0 1
749 2 1.0607921063032583e+01 5.9617446000596788e+00 1.3425247814091280e+01 -3 0 1
939 2 7.9730001640122499e+00 2.4260432673692023e+00 2.0925699431824318e+00 1 0 1
397 1 2.3416601465239140e+00 6.4491914194500337e+00 1.7177031477100069e+01 3 0 -1
830 2 1.1615614333544865e+01 7.1358144140935442e+00 1.7568264918021303e+01 -3 0 -1
537 2 9.3982497426689413e+00 7.2618905916669343e+00 1.4583970533668754e+01 -4 0 1
1407 2 2.4630670868348821e+00 5.6487762462961308e+00 1.6657212029911925e+01 3 0 -1
34 1 4.7664803813954659e-01 4.7363573987146976e+00 4.1951494579918212e+00 -1 0 0
194 2 1.1799601744579997e+01 5.0949486061830269e+00 1.6039987769481421e+01 -4 0 -3
615 2 7.5517202184346717e+00 3.1278445123258614e-01 5.2992167132004182e+00 -2 0 0
151 1 1.2233286405279172e+01 7.3934501044637075e+00 3.4319098425903638e+00 3 0 0
103 1 6.5618686484628643e+00 1.0203883386212448e+01 5.5351663935601678e+00 -2 0 -1
502 1 4.1171666573109880e+00 5.7051112190780562e-01 1.0837142939456907e+01 0 0 -1
686 2 7.9808075628541975e-01 -2.1739321956576696e-01 1.1199638218310129e+01 -3 0 0
394 1 1.6023680446092133e+01 5.2444677847752068e+00 1.1712963333666446e+00 -3 0 -3
783 2 1.0322259288917349e+01 2.9662700027886437e+00 1.8203454407942488e+01 -3 0 -3
775 1 1.0235141129301443e+01 7.3639589760710833e-01 3.4621028804629224e+00 -2 0 2
457 1 -1.1886194253557680e+00 5.4945019678376439e-01 4.7954173065922134e+00 -2 0 -2
725 2 -4.1821512678866242e+00 3.2198015532558371e+00 1.3082813461545820e+01 2 0 1
667 1 6.2679351490335726e+00 9.2492818064255289e+00 1.4210792242947377e+01 -3 0 -3
21 2 2.5453042858686605e+00 7.8481716167358009e+00 1.1438770900642108e+01 -2 0 -3
4 1 3.2931002068462352e+00 4.6458691717168232e+00 1.1022500963228664e+01 1 0 0
96 2 -1.2114974412911966e-01 9.4659993051666831e+00 1.2820724197700177e+00 -1 0 -1
532 1 1.9899154795991683e+00 8.5656019271213300e+00 1.5664689217889984e+01 -1 0 -1
905 2 2.9407140720330394e+00 7.7060887232032034e+00 1.6207656050937332e-02 -2 0 2
636 2 1.4948887792144793e+01 9.1210810920205034e+00 3.7417784857184362e+00 0 0 -2
220 1 -3.4274151878367385e+00 5.0597536468264215e+00 1.8184778014026914e+01 -2 0 -3
214 1 5.4316415397857751e+00 7.5747208793493819e+00 5.0654692710160605e+00 -1 0 -2
91 1 -3.4979641693599977e+00 1.0909510812827701e+01 1.1450165260820453e+01 0 0 0
469 1 1.3605182276634348e+01 5.0962402499872050e-01 1.3002718499027313e+00 -6 0 -2
527 2 7.8400828780287846e+00 4.1309981749943541e+00 8.8601539596252170e+00 -2 0 0
1008 2 7.0737775883315024e-01 1.0579470011289002e+01 1.1935699205663763e+01 -3 0 -3
868 1 6.2222842764163477e+00 5.1331959203203716e+00 1.7791914926869341e+00 1 0 0
102 2 3.6199460907131300e+00 5.3100876342845869e+00 8.0319501967325397e+00 -1 0 -1
559 1 7.8654988727933146e+00 4.6370469751791776e-01 8.9175008636550821e+00 -2 0 1
498 2 1.6133962608553645e+00 6.5887113865141318e+00 5.6972630574603507e+00 0 0 1
778 1 -4.6322702690236186e+00 2.4219025255212139e+00 1.6496818190251528e+01 1 0 -1
711 2 -2.2011551485807139e+00 4.2298399364044510e+00 1.3397913558297709e+01 -3 0 -2
714 2 -2.3638234662534030e+00 1.3836811620016058e+00 1.2735867895965276e+01 0 0 3
998 2 5.5568786688204836e+00 5.4027421289574757e+00 1.9028657407527689e+01 -3 0 2
398 2 1.4675239911618592e+00 6.2452672173232111e+00 1.7701829338033463e+01 3 0 -1
722 2 -6.5517438616816825e-01 4.5875856650936466e+00 1.2335894088622080e+01 -5 0 -3
426 2 1.6693928407502071e+01 2.3866039018616561e+00 2.4120352690642983e+00 -2 0 1
321 2 9.9049015847855770e+00 1.5313452705596431e+00 1.6542288306726014e+01 -4 0 -3
943 1 1.7824945190382357e+00 2.9718896972659725e+00 5.8842758192429656e+00 0 0 3
458 2 1.6062659361980099e+01 9.5424057179131938e-02 4.1901079060818738e+00 -3 0 -2
951 2 1.2151436818146539e+00 3.1796834024028935e+00 1.0136164463773460e+00 -1 0 2
710 2 -3.3400289026110910e+00 5.3298264910997633e+00 1.3035706497265819e+01 -3 0 -2
224 2 1.5221947846968014e+01 5.4498198338048685e+00 5.9868639231206542e+00 -3 0 -2
71 2 8.1556689218758329e+00 6.9766178955014340e+00 1.3916147604602498e+00 0 0 0
575 2 7.1787859732841524e+00 5.5378773911674433e+00 3.2940520201811836e+00 1 0 0
804 2 9.0427125712765157e+00 6.7138798473055603e+00 4.6376667654666557e+00 -2 0 -1
440 2 -4.5958378203100558e+00 8.6535582478808628e+00 1.4945304158412595e+01 -2 0 -2
393 2 1.1120890119440002e+01 8.4959622064331253e+00 7.5309732426957510e-01 -2 0 -1
100 1 3.7274337697269164e+00 5.9798546164640793e+00 8.7112746895288069e+00 -1 0 -1
921 2 1.0887218910042435e+01 1.9329798153219002e-01 1.1032249392018509e+01 0 0 -2
292 1 -2.5497828914899312e+00 1.0602784891734899e+01 1.7057680170023477e+01 1 0 -3
811 1 1.4212176180761043e+01 4.2730998319366744e+00 6.9143004948817461e+00 -2 0 -1
388 1 1.2744797392287602e+01 1.8241018893072929e+00 8.3363529693289529e+00 -1 0 0
944 2 2.5281092520865833e+00 3.4827307908520933e+00 6.3183980746797515e+00 0 0 3
515 2 8.8807737775711981e+00 7.7976899546369118e+00 8.3479730330146307e+00 -1 0 -1
536 2 8.8225619745981341e+00 5.8286222994853292e+00 1.4667864190713573e+01 -4 0 1
607 1 5.4888788691667258e+00 2.1871983388380456e+00 3.9552215196613121e+00 -3 0 0
865 1 -1.0521417900053867e+00 6.0357648475575347e+00 1.1308137725937499e+01 -3 0 -1
869 2 6.2534842332979954e+00 5.7837235064615564e+00 1.0545121518013185e+00 1 0 0
613 1 7.7044827357567023e+00 -3.5131679564739771e-01 4.5834419770152230e+00 -2 0 0
144 2 1.3471717863331596e+01 6.4318146250687533e+00 3.1010346814414933e+00 1 0 -1
120 2 1.1629283241646473e+01 2.1297531027969323e+00 1.4307672428003555e+00 -2 0 -2
994 1 6.3590332694459999e+00 4.3238888731582268e+00 1.3149653118712555e+01 3 0 0
259 1 -2.0395289801877849e+00 2.5459797314698407e+00 1.5825918086290136e+01 -1 0 -1
332 2 6.4349985500082241e-01 9.8962628574678178e+00 1.7854565830409971e+01 -1 0 -2
760 1 7.4240781936916234e+00 8.3580056085373200e-01 1.1710675768637002e+00 -3 0 2
599 2 4.6819835364017361e+00 4.5551333480475025e+00 6.3356326233657514e+00 -3 0 1
408 2 1.1883717263372411e+01 5.2077274345796756e+00 1.1608075722005866e+01 -3 0 -2
154 1 8.9151250282603183e+00 9.1695560241574903e+00 1.7755570444357250e+01 2 0 -2
963 2 7.5102297668158702e-01 5.0966586897440047e-01 1.4823776323877112e+01 -3 0 -1
35 2 -2.9822590196697640e-01 5.2100855589342565e+00 4.5565838943807568e+00 -1 0 0
132 2 1.3337767111017168e+01 6.8601220007542825e+00 1.1484514202204043e+01 -1 0 0
1664 2 1.0573516351024363e+01 8.4872392254765341e+00 7.7593153903280188e+00 -3 1 -1
104 2 7.4997498322433280e+00 1.0082749472052420e+01 5.3445976445562673e+00 -2 0 0
68 2 4.6657249594998005e+00 2.1173656114399875e+00 1.6238151477756849e-01 -3 0 -1
949 1 1.8935208838908135e+00 2.7065175574947906e+00 1.5423995934731196e+00 -1 0 2
819 2 3.6091615298123969e+00 5.9625486969600008e+00 3.6307592417397450e+00 2 0 3
131 2 -3.6041955077869385e+00 7.5026917424364967e+00 1.2507201961543133e+01 0 0 0
978 2 6.9694870762489272e+00 1.8954032978287452e+00 1.4692068664548000e+01 -3 0 -1
930 2 -4.6823846350036558e-02 9.3813371394653249e+00 8.2885554134044508e+00 1 0 0
37 1 -4.7127128834185905e+00 9.8544672885314384e+00 1.3588146952718327e+01 -3 0 -3
856 1 -1.1033365681455276e-01 4.4902034404340325e+00 1.5968788854675546e+01 -1 0 -4
782 2 8.8439783025921326e+00 2.6498323422048884e+00 1.8356958347105525e+01 -3 0 -3
438 2 5.9365097663406790e+00 8.3350240092489223e+00 2.1700710477041771e+00 -2 0 -1
526 1 8.7337187516696915e+00 4.3827079637479018e+00 8.5433988177997318e+00 -2 0 0
695 2 7.5769832660491829e+00 1.0325814874440225e+01 1.7637668326670450e+01 -1 0 -1
1584 2 6.5598001884956414e+00 6.5875718178430569e+00 4.2066608073364335e+00 1 0 0
471 2 1.3706151844535960e+01 1.2949442954339039e+00 7.3288995952279068e-01 -6 0 -2
222 2 -2.9838733642958846e+00 4.2787820195192232e+00 1.8539254737356995e+01 -2 0 -3
780 2 -5.1670059005455986e+00 3.1933127075232535e+00 1.6124151350098064e+01 1 0 -2
87 2 1.6479497878606988e+01 1.5151585797325797e+00 7.9771673218538874e-01 1 0 -2
67 1 4.9148955313955565e+00 3.0269686641223505e+00 1.9400072595018823e-02 -3 0 -1
1007 2 2.0580499591918420e+00 9.8468608653401883e+00 1.2455102208394960e+01 -3 0 -3
634 1 1.5413330773540386e+01 9.0727426414798131e+00 2.8823274613693020e+00 0 0 -2
425 2 1.5825642862429209e+01 3.1886188953276871e+00 3.5511369383940701e+00 -2 0 1
544 1 1.2938254974328565e+01 3.6944000317612886e+00 2.5300817445766288e+00 2 0 2
395 2 1.6076136212230725e+01 4.5049570218452155e+00 1.8276200393760917e+00 -3 0 -3
1001 2 4.4230600520605821e+00 4.0944368628195358e+00 1.8027866300235527e+01 -1 0 1
496 1 1.3070681078936759e+00 6.9871198041368787e+00 6.4918002186018677e+00 0 0 1
723 2 2.5111371991154297e-01 3.4359000921134748e+00 1.2841747602906612e+01 -5 0 -3
920 2 9.4094840102488391e+00 -7.9213527659001692e-02 1.1142621258687070e+01 0 0 -2
278 2 1.3204538265214971e+01 1.2505594318817357e+00 6.8466499005051684e+00 -5 0 -1
195 2 1.1754822854531703e+01 4.6282605655613986e+00 1.4550468495351737e+01 -4 0 -3
183 2 8.6250953703285873e+00 9.2270642698914074e+00 2.1636582630328616e+00 -1 0 0
583 1 7.6250732002961179e+00 1.7242920554742915e+00 6.5943374468701910e+00 -4 0 -3
584 2 7.5082545488401085e+00 1.3313211490991967e+00 7.5359447925928338e+00 -4 0 -3
889 1 1.0454653868730812e+01 -1.0704825847267230e-01 7.9978763315079338e+00 -1 0 0
466 1 -1.8344157283895028e+00 8.5130684454848247e+00 1.2896872810780048e+01 -1 0 2
389 2 1.1892448386437518e+01 2.1143049500016065e+00 8.6474907513434172e+00 -1 0 0
174 2 8.7239950718045716e+00 4.6971457060445161e+00 1.6291302330606499e+01 -1 0 -2
207 2 5.2421054735110530e+00 2.6145214973220545e+00 1.5646704666808107e+01 3 0 0
470 2 1.4504641639160809e+01 3.3242743318333545e-01 1.5888901618298523e+00 -7 0 -2
221 2 -3.3160946251330765e+00 5.8005800380395618e+00 1.8796880193295362e+01 -2 0 -3
577 1 -4.2524550928198206e+00 7.7806490319947397e-01 1.8793995471498643e+01 0 0 0
808 1 1.0252921759606249e+01 9.4602457551120480e+00 1.2693703627991045e+01 -4 0 -1
1000 1 5.3479414473465461e+00 4.3324992759007177e+00 1.7776573438090804e+01 -1 0 1
1080 2 7.4060948621265386e+00 8.1753154943285740e+00 5.6037476009910048e-01 0 0 0
145 1 5.9963607144816073e+00 4.0007874203190292e+00 9.5497508934946271e+00 1 0 1
950 2 2.2304971506485511e+00 2.0913042074458588e+00 8.6577589137439903e-01 -1 0 2
521 2 6.8177701452364561e+00 2.9230660193481630e+00 1.0498031524393149e+01 -5 0 -2
538 1 1.3016123606402572e+00 1.3525333731749278e+00 3.6962976804752068e+00 -4 0 -3
912 2 -5.1863601199214511e+00 4.2922593834755238e+00 1.8188710770458890e+01 -1 0 1
549 2 -3.1141216063204284e+00 3.0543232640366025e+00 1.0436663703519528e+01 -3 0 -4
922 1 4.0127747636988076e+00 2.3031906859213525e+00 8.8085664663064183e+00 -4 0 -3
143 2 1.4746850353252718e+01 6.0451416334067192e+00 2.1532784811658239e+00 1 0 -1
670 1 -7.5886444156660371e-01 8.3362046563284498e-01 8.8750562033396587e+00 -3 0 -1
770 2 7.8229490742075747e+00 1.0692245169744082e+01 1.0621789420217262e+01 1 0 -3
293 2 -3.2402278447110784e+00 1.0199851719793800e+01 1.7568551277265094e+01 1 0 -3
312 2 4.4273890652825365e-01 7.6951190608236555e+00 2.6926622121740498e+00 0 0 -2
802 1 9.9051305945775550e+00 7.0515556302993421e+00 4.9217815130016387e+00 -2 0 -1
641 2 1.6323627676664505e+00 6.5442461750054841e+00 9.6363364280536192e+00 4 0 -1
123 2 7.9110631613442770e+00 6.3809518668204781e+00 1.7438326545361157e+01 -2 0 -1
550 1 6.5372461450543886e+00 4.2973753250793676e+00 6.3436493077539318e+00 0 0 1
383 2 1.3917946585318786e+01 3.5231207652333305e+00 6.7426811659826136e-01 -2 0 1
813 2 1.5028422983313860e+01 3.8413731435390179e+00 7.2106181411195260e+00 -2 0 -1
923 2 4.1060892660966708e+00 1.9677946507070132e+00 7.8925226978128959e+00 -4 0 -3
910 1 -6.0243522344388651e+00 3.9267717232250794e+00 1.8520441657372867e+01 -1 0 1
546 2 1.3612612438528373e+01 4.3969592746184132e+00 2.8105712898798223e+00 2 0 2
585 2 7.3291052795895091e+00 2.7032220937218647e+00 6.6788996338732023e+00 -4 0 -3
762 2 7.7820634982874060e+00 -5.8101291357295470e-02 1.2889761750285156e+00 -3 0 2
876 2 -7.0256274914298356e-01 1.0309822503444234e+01 1.4824667953632330e+01 -2 0 1
606 2 4.2795191774574839e+00 1.0346833644400264e+00 1.8879715195239790e+01 0 0 1
121 1 8.6798574638798485e+00 5.7894561922853933e+00 1.7580243523366399e+01 -2 0 -1
911 2 -6.4184485710514254e+00 4.7517842557544103e+00 1.8776627601645913e+01 -1 0 1
424 1 1.6578556923392483e+01 3.2611899165493230e+00 2.9361459483583974e+00 -2 0 1
6 2 3.8113479488040367e+00 3.9724808737911008e+00 1.1526513714031964e+01 1 0 0