LAMMPS data file via write_data, version 3 Mar 2020, timestep = 0

2016 atoms
2 atom types

0.0000000000000000e+00 1.7914424303504283e+01 xlo xhi
-1.7998266254271087e+00 4.6795986602342296e+01 ylo yhi
0.0000000000000000e+00 1.9054319675334934e+01 zlo zhi
4.5545003107836581e-02 -6.6620690181005813e+00 -2.3003084232840365e-02 xy xz yz

Masses

1 16
2 2

Atoms # atomic

579 2 3.2265938776451808e+00 4.7927090807976072e+00 1.5201756777550319e+01 0 0 0
223 1 -7.9182148958083509e-02 6.2646522346144256e+00 1.8581779112174655e+01 -2 0 -2
253 1 1.1185706497370884e+01 9.9858838432246344e+00 1.5481400444002263e+01 -3 0 -3
654 2 -5.6223007027215344e-01 5.1831212195580552e+00 5.2000425911733386e+00 -1 0 0
394 1 9.4961387140525240e+00 4.8697427394710715e+00 4.9155012096461679e+00 -3 0 -3
578 2 2.2990166552066151e+00 4.8366497795775896e+00 1.6373972052912627e+01 0 0 0
929 2 1.3662283618512244e+01 3.5081961871831240e+00 6.5564740897058984e+00 0 0 0
513 2 8.0292842185197539e+00 -9.3799507472571175e-01 1.5583358231063086e+01 1 0 0
705 2 1.2732729925407899e+01 5.2075774608352132e+00 1.3999208499595561e+01 -3 0 -1
302 2 1.1150059076012807e+01 5.0167728275023924e+00 2.1567511317832473e+00 0 0 0
299 2 1.1266658238938788e+01 2.7658516390320838e+00 1.5763539071886603e+01 -3 0 -2
896 2 1.7100613293816082e+01 5.9509278879597476e+00 1.0677244207662173e+00 -1 0 0
150 2 -3.0050624000968602e+00 9.4987251528068217e+00 1.3425400749443579e+01 -3 0 -1
406 1 9.0165834163856706e-01 1.2827880088318993e+00 8.6056854875006810e+00 -2 0 -2
697 1 1.0551636525001360e+01 9.1425785028887621e+00 1.9464013518298628e+00 2 0 4
596 2 2.6621711184657366e+00 5.2558459579718964e+00 6.1687517353321280e+00 3 0 -2
368 2 1.5616748689340737e+01 7.6850230117782310e+00 1.6690772998431549e+00 -2 0 0
805 1 1.1416723399960391e+01 9.8045815814252109e+00 7.6700227252305746e+00 -4 0 1
881 2 1.0612931687477566e+01 2.0066997748270623e+00 9.0270490997112081e+00 -3 0 2
319 1 1.0711328746515711e+01 -4.3387738341593196e-01 1.4630615726874916e+01 -4 0 -3
53 2 1.1912376544856301e+01 1.5509809984679257e+00 1.2737862773576387e+00 2 0 0
291 2 9.1826734004863848e+00 7.8864951172658628e+00 6.5424844363543269e+00 0 0 3
609 2 5.2527452887099662e+00 2.3585044639402843e+00 2.9037320100842976e+00 -3 0 0
1583 2 -4.5041325152531346e+00 3.6878768284603591e-01 1.5531446952192509e+01 0 1 1
122 2 7.7555196952557699e+00 5.7514098323316567e+00 1.5787290061645676e+01 -2 0 -1
295 1 1.0234010939367499e+00 8.7453372548174269e+00 1.3719172236982904e+00 2 0 3
407 2 1.4154070471513505e+00 4.5472232257658129e-01 8.8287773157267857e+00 -2 0 -2
707 2 1.9555372448484265e+00 6.5800086229418699e+00 1.4934094386135687e+01 -1 0 -1
972 2 4.5644041052415254e+00 6.4153669525899346e+00 2.4905844430617643e+00 0 0 1
448 1 5.7351185158390514e+00 5.7076536096577399e+00 1.1020163433857288e+01 -1 0 1
244 1 1.1317380371502793e+01 5.6821160578594823e+00 1.3048544561687086e+01 -4 0 -4
761 2 4.8039548312162150e-01 -1.7467787661302436e+00 1.8506713188457599e+01 -3 0 1
687 2 2.1528442841064570e+00 -5.6053538693998961e-01 1.0406911579817985e+01 -3 0 0
919 1 1.1320277263090960e+01 -1.2920856954010373e+00 9.3916156388263836e+00 0 0 -2
669 2 7.3879886692448054e+00 1.0007280342578209e+01 1.1526767420546243e+01 -3 0 -3
301 1 1.0503185423794125e+01 4.2742872317359319e+00 2.1207779558295039e+00 0 0 0
589 1 -1.7770991920708124e-01 9.5573336091305165e+00 1.1408452483332415e+01 -4 0 -1
270 2 -1.1141706256769344e+00 9.2104211962426472e+00 1.4461212651309024e+01 2 0 -1
463 1 3.6366906936179357e+00 5.8433045231838054e+00 7.6742560812910785e+00 2 0 0
449 2 5.2356378680795332e+00 6.4067942611463202e+00 1.0626604844099893e+01 -1 0 1
524 2 2.1006435912718207e+00 4.1224374999435724e+00 1.2310440786676232e+01 -2 0 -4
585 2 -2.0681599852842241e+00 7.1987237419385703e+00 1.3309589062238137e+01 -4 0 -4
523 1 2.1558532130275294e+00 4.7133587889156079e+00 1.3078689222460531e+01 -2 0 -4
658 1 5.9003033194043972e+00 3.2519461004884223e+00 1.3677795708130999e+01 -1 0 -2
206 2 3.5121039178073241e+00 6.2576200418434658e-01 1.4893378434003749e+01 3 0 0
96 2 -1.0511534516475856e+00 4.3073947005754647e+00 7.3658506173211125e+00 -1 0 -1
441 2 4.6217548788798091e-01 4.5824394352330984e+00 1.3224547905036349e+01 -2 0 -1
151 1 8.3802028802032886e+00 1.1827236434774342e+00 3.1907816217386542e+00 3 0 0
781 1 2.1690318970601834e+00 4.0008417172190125e+00 1.1977783055458882e+00 -2 0 -2
880 1 1.0630263325820502e+01 1.3393850646039072e+00 9.7322295842448803e+00 -3 0 2
626 2 2.2662437238279383e+00 1.0565871415029551e+00 1.6998886197051682e+01 0 0 -1
995 2 7.8139707263122364e+00 7.8735377710162258e+00 8.1706272687510726e+00 3 0 1
703 1 -4.2424277503734373e+00 5.0753269336120557e+00 1.4191487886211894e+01 -2 0 -1
382 1 1.6863676701972302e+01 4.3847739117612470e+00 2.0005793660277496e+00 -2 0 1
21 2 1.2094585608182506e+01 6.9917311033427652e+00 5.3725990310613323e+00 -3 0 -3
528 2 5.0567455782696200e+00 7.6570773722966390e-02 5.1248824061256490e+00 -2 0 -1
54 2 1.0584965877809219e+01 1.7536849605666518e+00 4.9340179775345322e-01 2 0 0
962 2 9.3254082140942707e-01 -1.5495549125446277e+00 1.3656319253791777e+01 -3 0 -1
689 2 5.8891050513123133e-01 1.6720024307200161e+00 5.4642534356079002e+00 -2 0 0
977 2 4.9425135014722743e+00 -1.6018473309139125e+00 1.8090564228033909e+01 -3 0 -1
392 2 1.0003354420089021e+00 8.2365243060231066e+00 1.1649859220689928e+01 -1 0 -1
652 1 -1.9520099530264390e-01 5.5324852646460974e+00 4.3410648599276795e+00 -1 0 0
52 1 1.0920876869806024e+01 1.5283495241573477e+00 1.4002237259874875e+00 2 0 0
356 2 -1.7850074955750888e+00 5.4095466871468965e+00 1.8593612118014796e+01 -4 0 -3
477 2 7.9154537785871613e+00 7.1738911596424817e+00 1.2899989342109759e+01 -1 0 2
500 2 1.5352259988953483e+00 1.0666139449706034e+00 1.1706533299108960e+01 1 0 0
367 1 1.4704753284449632e+01 7.9230838747192500e+00 1.8541153584363348e+00 -2 0 0
872 2 6.1924047249830307e+00 -1.6277641308809654e+00 5.7436544495785737e+00 -2 0 -1
789 2 6.7778359738516398e+00 7.2233128901104156e+00 2.7005124789212145e+00 -2 0 0
810 2 7.4056735694948381e+00 4.4514170045652701e+00 9.4236568417727344e+00 -4 0 -1
930 2 1.4046033350237682e+01 2.8583786734583621e+00 5.2158419158153473e+00 0 0 0
702 2 5.1918646247507239e+00 1.5028478773323641e+00 1.6023476541251139e+01 -3 0 -3
501 2 1.7984483801268736e+00 -1.1365019793827025e-01 1.2614176001806788e+01 1 0 0
625 1 2.5775198427210757e+00 9.3249625444744400e-01 1.7922670139223314e+01 0 0 -1
685 1 2.3007430213250624e+00 -7.7425983675865417e-01 9.4890217777540400e+00 -3 0 1
101 2 5.1987223470008077e+00 5.6313963553139317e+00 1.2595723662401014e+01 -1 0 -1
384 2 -6.1097759101718307e-01 4.7439899505640426e+00 2.8073241952810442e+00 -1 0 1
245 2 1.0658424606582349e+01 6.0880558967973091e+00 1.3691125200347516e+01 -4 0 -4
622 1 -2.8646227316970618e+00 2.6935899830024974e+00 1.6998085064103037e+01 -2 0 -2
624 2 -2.5729886964142565e+00 2.1511413091294287e+00 1.7837799227369651e+01 -2 0 -2
179 2 1.2632929614409388e+01 3.4488813277894455e+00 2.0461032622192873e-01 -3 0 0
1584 2 8.7333593606571398e+00 7.7484928422823440e+00 1.4962299480302864e+01 0 0 0
539 2 1.5924914248588133e+00 -3.8963233410482312e-01 1.8374935221053510e+00 -4 0 -3
313 1 -3.3564241943159927e+00 9.1257826151827235e+00 1.6969400367742374e+01 -3 0 -3
993 2 1.2997354773346876e+01 -1.4683959393447279e+00 8.7156860190289525e+00 1 0 1
600 2 -4.9884594878203181e-01 5.8666043563255998e-01 9.0914922682831243e+00 -3 0 1
49 1 7.3120683091683754e+00 3.1659951840703631e+00 1.0716510980529204e+01 -1 0 0
183 2 1.2858245009541006e+01 4.7597640916056339e+00 7.7138014050498356e+00 -1 0 0
464 2 4.1812198967740839e+00 6.5643008910148932e+00 7.9924553555368059e+00 2 0 0
393 2 1.5579716081343777e+00 7.2489100731792355e+00 1.2802568370830835e+01 -1 0 -1
672 2 -1.0744237296858947e+00 -8.9709846431631202e-01 8.0247245338361353e+00 -3 0 -1
671 2 -1.0548149297390053e+00 -4.5384210594069230e-01 6.6441014110697640e+00 -3 0 -1
135 2 -8.9516813532465855e-01 4.5542326172182310e+00 9.7699390359434606e+00 1 0 -1
778 1 5.7891151743817044e+00 7.3480383405310583e+00 5.5366725685236986e+00 1 0 0
949 1 -4.6335104526341739e+00 -3.5911802697507111e-01 1.7347522233842312e+01 -1 0 1
598 1 -1.3527324147481303e+00 1.5866804022509307e-01 9.3586087164235554e+00 -3 0 1
120 2 6.4087640144258264e+00 4.3852345044612262e+00 3.2141972723824295e+00 -2 0 -2
540 2 1.0869269128620365e+00 -1.1553351612316005e+00 3.1029592286755112e+00 -4 0 -3
640 1 1.9237027910682896e+00 5.9804681986119439e+00 9.7973896146810535e+00 4 0 -1
753 2 -3.3876715894012941e+00 6.0079256887473020e+00 1.7169135830210006e+01 0 0 2
668 2 7.7542341860666522e+00 9.4218381045135118e+00 1.0087560173874120e+01 -3 0 -3
119 2 4.9295026260780102e+00 4.3225915461656168e+00 3.5886415533510103e+00 -2 0 -2
525 2 3.0439864285186431e+00 5.1763849169447651e+00 1.3001565659582775e+01 -2 0 -4
457 1 -7.1647985072842879e-01 -1.7063391799939447e+00 2.9040323757293320e+00 -2 0 -2
971 2 4.6304781763477560e+00 7.6426702077217019e+00 1.5029928039623024e+00 0 0 1
511 1 7.7237769509639929e+00 -1.6926397442800147e+00 1.6161656146396176e+01 1 0 0
212 2 9.4159198826696766e+00 3.7826517101097732e+00 8.1903674339635000e+00 -5 0 -2
701 2 5.5449252086047514e+00 2.7968536709542713e+00 1.6860663168748971e+01 -3 0 -3
5 2 4.7057130823975264e+00 8.7796451413847745e+00 5.7168585349980185e+00 1 0 0
470 2 1.6667225136955942e+01 2.5970614438656412e+00 1.4255748725907871e+00 -7 0 -2
471 2 1.5770103625390211e+01 1.5289679398333620e+00 6.9843299074913867e-01 -6 0 -2
708 2 1.7881992594418685e+00 8.1181538957662962e+00 1.4936036653881335e+01 -1 0 -1
856 1 2.6007915329924138e+00 9.0939596419884445e+00 8.1480924783343962e+00 -1 0 -3
46 1 1.0163770926148814e+01 6.6136737062660291e+00 6.8235904612280454e+00 -3 0 0
992 2 1.4064399224020871e+01 -4.2275930131898409e-01 8.6101343323073891e+00 1 0 1
806 2 1.1288376015054270e+01 9.3892403166382294e+00 6.8280421452076725e+00 -4 0 1
627 2 2.3086024363132402e+00 6.7985719609251039e-02 1.8281276912647016e+01 0 0 -1
111 2 1.7270926662640775e+00 1.9596962686316401e+00 1.8878345595813940e+01 1 0 -4
869 2 1.2412532962580702e+01 5.6745438241983583e+00 9.5937911317232807e+00 1 0 0
16 1 -6.4762314656578557e-01 3.0907861300041608e+00 1.5599404301737735e+01 0 0 1
178 1 5.4493679225163749e+00 3.4912456248866244e+00 1.8469466016731214e+01 -3 0 -1
974 2 1.0389531291477468e+01 -1.3154514358578240e-01 1.6187818891878084e+01 -4 0 -2
118 1 5.7271063652481793e+00 3.8206796794919491e+00 3.6690483127124733e+00 -2 0 -2
922 1 3.1589883370283705e+00 8.9353760428601241e+00 1.6532224093161833e+01 -3 0 -3
623 2 -3.7239780342935149e+00 2.5049144843554183e+00 1.6539656194929030e+01 -2 0 -2
1668 2 5.4667426422497218e+00 4.1735814546983123e+00 1.3709113229349812e+01 -1 1 -2
644 2 1.1288366545258574e+01 1.2185040288568683e+00 1.1713553863201509e+01 -4 0 -3
843 2 -1.0214820048545858e+00 -6.2504862268276695e-01 1.4939813419533468e+01 -5 0 -5
83 2 1.5343629506765861e+01 8.4466385585516512e+00 6.2994636719159924e+00 -1 0 -3
239 2 4.2900900331146747e+00 5.7772149894641815e+00 1.7076968320726280e+01 0 0 0
716 2 7.5441837227188575e+00 4.0925062436017265e+00 1.4047238071201200e+00 1 0 2
717 2 8.5777032982752264e+00 4.6247663877560079e+00 2.3639607424778526e+00 1 0 2
240 2 4.7718982157317917e+00 6.7792649060862100e+00 1.8279156469196181e+01 0 0 0
904 1 1.0049120951456556e+01 7.3643959426559498e+00 3.6916158602838847e+00 -3 0 2
17 2 -6.9306592573258996e-01 3.8281066866562821e+00 1.4988336064159379e+01 0 0 1
779 2 6.3373337425965488e+00 7.3510477209464860e+00 4.7305018290745720e+00 1 0 0
991 1 1.3908208946578723e+01 -1.3649273039256755e+00 8.3589927833382607e+00 1 0 1
645 2 1.2241795398046714e+01 1.8978271183398889e+00 1.2777143388062418e+01 -4 0 -3
613 1 -1.4431316925522877e+00 1.5613837799589203e+00 1.8984662566210140e+01 -2 0 -1
246 2 1.0874848761286025e+01 5.1050399198312624e+00 1.2426251179729514e+01 -4 0 -4
238 1 5.0048155838832740e+00 5.9912709158762087e+00 1.7717783053367967e+01 0 0 0
522 2 7.9660844624561955e+00 -8.1643626538962843e-02 1.0871601764286831e+01 -5 0 -2
715 1 7.6658112662927511e+00 4.7022984865885551e+00 2.1495038714783323e+00 1 0 2
115 1 -3.9244922908365880e+00 2.6719252608858239e+00 1.3176700113284440e+01 -4 0 -5
426 2 1.3403575426050226e+01 1.5626589083236468e+00 3.1862528431833534e+00 -2 0 1
980 2 1.2449687269858741e+01 8.7999079212038112e+00 8.9377496109129293e+00 -2 0 0
503 2 3.9784949332306172e+00 -6.0199145685788857e-01 9.5711938796843690e+00 0 0 0
721 1 -9.2068746305175253e-01 9.7272112670941642e+00 1.5986531626081870e+01 -5 0 -3
933 2 -9.5519984192915786e-01 6.4791932175483335e-01 1.2619347817213564e+01 -2 0 -1
269 2 -9.8606976264385571e-01 9.0880261997970706e+00 1.2805745258564748e+01 2 0 -1
868 1 1.3213430377220458e+01 5.1804587265493502e+00 9.5273697821766703e+00 1 0 0
167 2 1.2249213778092559e+01 9.2731695505554264e+00 4.3449734286940771e+00 -4 0 -4
18 2 -1.5462654928337898e+00 2.9206373220260851e+00 1.6052455768458412e+01 0 0 1
435 2 9.8976520971783160e+00 9.8527726320357143e+00 1.6858911144965692e+01 -2 0 0
250 1 3.9855210967235015e+00 8.6826341903469544e+00 1.2200842503009939e+01 -3 0 2
785 2 3.7161526512306786e-01 1.4825178818812068e+00 5.5538833451665248e-01 -3 0 -2
870 2 1.3975494365452018e+01 5.8218999447940325e+00 9.7046710948268018e+00 1 0 0
211 1 1.0017308712485690e+01 3.2173012115873867e+00 7.7027679546559575e+00 -5 0 -2
387 2 2.6925629764453767e+00 3.0490190525737058e+00 4.3740373207171448e+00 0 0 -2
252 2 4.5758834695384536e+00 8.4391580825895414e+00 1.1485936067900854e+01 -3 0 1
643 1 1.1302548919201346e+01 1.6087830329398844e+00 1.2622267401873515e+01 -4 0 -3
279 2 5.7476779278028793e+00 8.0381652416215523e+00 9.4113191929634326e+00 -4 0 -1
184 1 -1.9782328528443438e+00 -8.5960870333451211e-01 1.8076823754184044e+01 -4 0 -7
85 1 1.6912462323925425e+01 -1.4264580321684535e+00 1.7021192160697646e-01 1 0 -2
116 2 -3.7963932723191922e+00 1.8562827899167305e+00 1.3689753732989345e+01 -4 0 -5
224 2 3.5879317756488582e-01 5.6585543541108656e+00 1.7936079361637592e+01 -2 0 -2
845 2 7.6398439759081835e+00 -1.7524506598574119e-01 1.2932964316907357e+01 1 0 1
48 2 9.8121646423156221e+00 5.9244152258344398e+00 6.2348228023146808e+00 -3 0 0
117 2 -3.7624122448614328e+00 3.4368464798757170e+00 1.3734842732258398e+01 -4 0 -5
931 1 -4.0142719931657211e-01 1.1465758311391925e+00 1.3275660069871572e+01 -2 0 -1
429 2 1.0497237384877218e+01 7.0514685914581108e+00 1.6004844046725331e+01 -1 0 -1
385 1 2.4481474767745866e+00 2.1028386316423187e+00 4.4946993308399650e+00 0 0 -2
315 2 -3.5997340547534034e+00 8.1803427313711445e+00 1.6798419930436076e+01 -4 0 -3
961 1 1.4970409364403086e+00 -9.8728778362723768e-01 1.4198639809354436e+01 -3 0 -1
42 2 4.4854789252638012e+00 4.2944621283504771e+00 8.5670369326594056e+00 -2 0 3
726 2 1.3969288923185189e+01 1.9376697106136453e+00 8.9877213811503882e+00 1 0 1
876 2 1.2420184174418793e+01 7.0206968155893357e+00 1.2406696554545350e+01 -3 0 1
769 1 -2.6319258212098129e+00 6.7358039472414433e+00 1.0393793288793564e+01 1 0 -3
1002 2 9.9358238568217061e+00 1.8424580275930906e+00 3.9682140492854217e+00 -1 0 1
4 1 3.9998148302890297e+00 9.4934396859979415e+00 5.7920290578005691e+00 1 0 0
905 2 1.0366172941150586e+01 7.9307576606069681e+00 2.9501331778927513e+00 -3 0 2
41 2 4.8906513450074467e+00 2.9020199906193662e+00 9.2031827548744101e+00 -2 0 3
675 2 -3.0415918995548590e+00 9.2857957810182725e+00 1.8881833700642254e+01 0 0 -4
812 2 9.0664447899791423e+00 3.9445838920402938e+00 1.1179935772469694e+01 -2 0 -1
932 2 -9.5941845371947387e-01 1.8279791828384155e+00 1.3556482900731236e+01 -2 0 -1
548 2 7.8800624595291175e+00 7.4781826651761136e+00 1.7664258582641548e+01 -3 0 -4
213 2 9.4599143000118673e+00 2.6000865438599625e+00 7.2594920936510121e+00 -5 0 -2
290 2 7.7079100640454250e+00 8.0925006934990247e+00 6.1502771602527746e+00 0 0 3
858 2 3.0641873237515851e+00 9.1082278120650173e+00 7.2829101516085624e+00 -1 0 -3
338 2 3.0043695832932213e+00 5.1969142701490121e+00 4.1572198186242000e+00 -1 0 -1
938 2 1.2827640826440398e+01 6.0574473885977902e+00 3.5057716575644333e+00 1 0 1
969 2 2.8803452238200991e+00 3.2477969558669830e+00 1.0056005230089546e+01 -1 0 1
545 2 7.8761363359224390e-01 2.0013027670389101e+00 1.5274656855066741e+01 2 0 1
386 2 2.8374970654457154e+00 1.5719970070334743e+00 3.7465656946081025e+00 0 0 -2
937 1 1.2765024994896907e+01 6.1693363798935517e+00 2.5269941105749898e+00 1 0 2
40 1 4.5354355740950369e+00 3.7444103513247731e+00 9.4253361105615152e+00 -2 0 3
786 2 1.8212661489251654e+00 1.7833120297885947e+00 6.4267083183103546e-01 -3 0 -2
776 2 1.1465513988577969e+01 -1.5041346587035158e+00 1.8012664883350282e+00 -2 0 2
724 1 1.4016070133140596e+01 1.3020399294415919e+00 8.2300912418567886e+00 1 0 1
784 1 1.2203808137822749e+00 1.0651369821563126e+00 4.2273943601921754e-01 -3 0 -2
967 1 2.0087046300518119e+00 3.0753669209882952e+00 1.0522110853437171e+01 -1 0 1
553 1 -6.3292714952004427e+00 4.1841938948734985e+00 1.8164235271891958e+01 -4 0 -2
681 2 8.4911676687671296e+00 2.7675476753267443e+00 1.7800061029053513e+01 -3 0 -3
649 1 8.1644137383675446e+00 1.6203044491130694e+00 6.6380391393841691e+00 -4 0 0
650 2 7.3067428091258160e+00 1.6561165109460854e+00 7.1967855887080230e+00 -4 0 0
51 2 6.7069733036000123e+00 3.0988010207223864e+00 1.1481367139454731e+01 -1 0 0
36 2 -1.1899428888748438e+00 1.1846441238851790e+00 4.5947832833969375e+00 -1 0 0
945 2 3.1440875493034297e+00 -4.2697415492528257e-01 6.1520369676994884e+00 0 0 3
673 1 3.5654893903835929e+00 9.2518913722810581e+00 7.2522304271882998e-01 0 0 -3
939 2 1.3367945756140742e+01 6.8449926040736084e+00 2.2132668027682332e+00 1 0 1
397 1 1.4725051224578589e+01 7.3981439871442625e+00 7.0171160976894438e+00 2 0 0
127 1 1.4067625202773787e+01 4.0945103234386844e+00 1.6831463374519904e+00 -2 0 -1
128 2 1.3810224156646330e+01 3.3695822782171945e+00 2.2726715076645156e+00 -2 0 -1
1407 2 1.4055236942293584e+01 7.0827787898285628e+00 6.3669095610984066e+00 2 0 0
34 1 1.6177036442196069e+01 6.8649089867872259e-01 3.8938456427423911e+00 -2 0 0
928 1 1.4434589237234196e+01 3.2129497001325005e+00 6.0181479316917441e+00 0 0 0
777 2 1.0735067832134852e+01 -2.9794359654351577e-01 1.2123824492366457e+00 -2 0 2
152 2 8.2205664720948146e+00 1.5967851304328171e+00 2.3236195832681905e+00 3 0 0
439 1 -4.7358379386256999e-01 4.3347866710237888e+00 1.3308779878972288e+01 -2 0 -2
350 2 1.3721012715630048e+01 -1.6335238804541463e-02 7.2871372361067344e-01 2 0 4
951 2 -3.7007966422216252e+00 -5.1043481061942231e-01 1.7602066363540128e+01 -1 0 1
176 2 4.6904365568553814e+00 -8.0915721019326592e-01 1.3326712728797331e+01 -5 0 1
783 2 2.9833839972298839e+00 4.3438727367956318e+00 7.2708550252427673e-01 -2 0 -2
148 1 -3.8798415765200494e+00 9.9102616674449227e+00 1.3157183861331434e+01 -3 0 -1
994 1 7.4655935461090257e+00 7.4145797277779550e+00 8.9636295970582882e+00 3 0 1
725 2 1.4267403865778938e+01 1.8644151616057960e+00 7.5007615559828507e+00 1 0 1
979 1 1.3270786188326200e+01 8.4789175722588528e+00 9.4137005639718385e+00 -2 0 0
129 2 1.3455841922806911e+01 4.8620195481561899e+00 1.8979260799171080e+00 -2 0 -1
559 1 8.6296753042684138e+00 -8.4777983898363940e-01 7.6462128461140599e+00 -2 0 1
173 2 9.2999980772032416e+00 3.4415742205137949e+00 1.4302819981771410e+01 -1 0 -2
1664 2 1.1243533846131628e+01 8.9189926747602666e+00 2.9977580421429462e-01 -3 1 0
428 2 1.0824619520478102e+01 8.2390714100680942e+00 1.5164007763195345e+01 -1 0 -1
495 2 -3.7593974749858039e-01 7.9566526611736865e+00 6.6068652444295450e+00 -3 0 -2
462 2 1.0457123611400029e+01 5.6359885815950079e+00 1.0111159966036357e+01 -4 0 -2
651 2 7.9622888721289122e+00 1.9534130079795760e+00 5.7878113945070764e+00 -5 0 0
996 2 7.4901978331663273e+00 6.4610088944725899e+00 8.6672919991545943e+00 3 0 1
611 2 1.3556676852889042e+01 3.5077006857048039e+00 1.0290030495904304e+01 -1 0 2
434 2 8.8045885814185159e+00 9.3817378088911472e+00 1.7930808430933521e+01 -2 0 0
750 2 4.3210967645650378e+00 8.0565493750364467e+00 1.3764031753606911e+01 -3 0 1
749 2 4.2592935855890373e+00 8.0290338400090686e+00 1.5376696996011637e+01 -3 0 1
102 2 5.0446011909757438e+00 6.2051720802874399e+00 1.4075568865978060e+01 -1 0 -1
497 2 5.8718666919671190e+00 8.0904900682237013e-01 8.6262292321793552e+00 0 0 1
498 2 4.9996849886896957e+00 9.2694110510261130e-01 7.2791741713441569e+00 0 0 1
395 2 9.7229057921872268e+00 5.4262518272546423e+00 4.2074475806498697e+00 -3 0 -3
924 2 2.3293671202651396e+00 8.8876135563704306e+00 1.7031280721331601e+01 -3 0 -3
349 1 1.3630302958297044e+01 9.4959359241459929e-01 8.3861071588178593e-01 2 0 4
679 1 8.2163519441532671e+00 1.7829434024134754e+00 1.7751938205475369e+01 -3 0 -3
398 2 1.4417607923179794e+01 7.6510682901685421e+00 7.9083913315680858e+00 2 0 0
722 2 -2.9945766029401177e-01 9.3050448975762485e+00 1.6589018359966428e+01 -5 0 -3
297 2 4.0204830940660197e-01 9.5233170008294294e+00 1.3295743255611159e+00 2 0 3
321 2 1.1059028477640101e+01 2.8018235907665900e-01 1.4077851683045202e+01 -4 0 -3
943 1 3.7530255282939433e+00 3.3552360610105181e-01 6.1922378181372775e+00 0 0 3
981 2 1.3021051621825734e+01 7.8588657121480683e+00 1.0140670014437815e+01 -2 0 0
222 2 1.1556908016993130e+00 9.3902347632259850e+00 1.8498747176751269e+01 -2 0 -3
220 1 9.2735938952105901e-01 8.7757554030766283e+00 1.7780930215045839e+01 -2 0 -3
172 1 9.8909829376648126e+00 2.7160163847215486e+00 1.4524071151449945e+01 -1 0 -2
298 1 1.1982672284735500e+01 2.3631608311640182e+00 1.6243352909568955e+01 -3 0 -2
680 2 7.4370875997849000e+00 1.9689766787290099e+00 1.7121502837575520e+01 -3 0 -3
831 2 2.8451771444007830e+00 9.2703791414888830e+00 4.5649891910036384e+00 -3 0 0
917 2 3.4221807453607460e+00 -1.5428864052367066e+00 3.1234384109839297e+00 1 0 3
944 2 3.2658925815972433e+00 1.0984769303123492e+00 5.7933020020427950e+00 0 0 3
100 1 4.7588068422993395e+00 5.4989944292997146e+00 1.3451403136369510e+01 -1 0 -1
1667 2 5.7435932933151053e+00 2.8931242855767145e+00 1.4585216104073096e+01 -1 1 -2
352 1 1.0032375001823569e+01 8.4410142621647513e+00 1.0753343986046955e+01 -1 0 0
174 2 1.0215200676160419e+01 2.4245289445418017e+00 1.3665396086749743e+01 -1 0 -2
388 1 1.3895168450667404e+01 -5.1920580523233295e-01 4.5283288399779984e+00 -1 0 0
465 2 2.8890828211389787e+00 5.9249845224249942e+00 8.2933993428004840e+00 2 0 0
166 1 1.1589627090574048e+01 9.1715617098533428e+00 5.0435931200506969e+00 -4 0 -3
460 1 1.0599246725369117e+01 6.1878399536386794e+00 9.3675976303303266e+00 -4 0 -2
607 1 4.8230776143718614e+00 1.5697041641000591e+00 2.4912151266579210e+00 -3 0 0
846 2 6.6219351571359635e+00 -1.0444652203934774e+00 1.2183071578193990e+01 1 0 1
502 1 4.9548759849781483e+00 -5.3100624668331609e-01 9.9060209234256149e+00 0 0 -1
712 1 -1.6680741880971968e+00 -1.0185988385280096e+00 1.1921988748285019e+01 0 0 3
595 1 2.2779333167244058e+00 4.7239205564606799e+00 5.4926150672160370e+00 3 0 -2
526 1 5.8040274072799036e+00 -2.7053187296668768e-01 4.6287535294398090e+00 -2 0 0
109 1 7.6868652529317067e+00 2.5945379716324668e+00 2.5638828796956692e-01 1 0 -3
615 2 -1.4686514662406154e+00 6.1024690736019327e-01 1.8755244842343672e+01 -2 0 -1
953 2 1.4679995111064862e+01 9.3686161741836322e+00 4.3534638264600583e+00 -1 0 1
461 2 1.0187075784897637e+01 6.9927831623253844e+00 9.6780765097572559e+00 -4 0 -2
599 2 -2.0535114099754663e+00 7.4914597736076471e-01 9.0056372572035635e+00 -3 0 1
408 2 8.2728140177351683e-01 1.3828899789148568e+00 7.6364189608140904e+00 -2 0 -2
20 2 1.2663672140217139e+01 5.6574362053358627e+00 5.9017736697618668e+00 -3 0 -3
182 2 1.1511441429215807e+01 4.1391066004254533e+00 7.2825136704121114e+00 -1 0 0
35 2 1.6275610228506334e+01 1.1468371754389386e+00 3.0390640099995014e+00 -2 0 0
216 2 5.2763695871387051e-01 8.6138323429717421e+00 4.3234581723653784e+00 0 0 -2
268 1 -1.5028316187024000e+00 8.8063990426387786e+00 1.3628945577898461e+01 2 0 -2
475 1 8.3194194123882994e+00 6.5967444150710257e+00 1.2195926704109164e+01 -1 0 2
68 2 8.6327364438967784e+00 4.9730645513493856e+00 1.7708997125281822e+01 -4 0 -3
529 1 8.3463398893286094e+00 -1.4755589852779671e+00 2.8200253500004595e+00 -1 0 0
133 1 -6.4043058344530879e-01 5.1751516328229306e+00 9.0716746069119782e+00 1 0 -1
610 1 1.4042635253101633e+01 2.7418044145579898e+00 1.0528483374835149e+01 -1 0 2
952 1 1.4200035710965343e+01 9.6189192688930465e+00 3.5691087593208297e+00 -1 0 1
82 1 1.5654321378741361e+01 9.2456869290931447e+00 5.7315216849065198e+00 -1 0 -2
300 2 1.1574316007507452e+01 1.5736947962540668e+00 1.6656489045550980e+01 -3 0 -2
214 1 -1.9890391946786967e-01 8.0723642641318012e+00 4.5996778327027936e+00 0 0 -2
782 2 1.4806462970130303e+00 4.1449019832031642e+00 5.0170224269343622e-01 -2 0 -2
690 2 -3.6048995828995611e-01 2.6773689436647308e+00 6.1033189475358514e+00 -2 0 0
561 2 8.5202858264472088e+00 -6.3708756140435918e-02 7.0732711301248559e+00 -2 0 1
728 2 7.4433220226526640e+00 3.9819434833408325e+00 1.4239094535234797e+01 0 0 1
113 2 8.7094747157200274e+00 8.7531196012862589e-01 1.4726143223623573e+01 -2 0 -1
667 1 7.0749398428002905e+00 9.9374797890230084e+00 1.0618995528235642e+01 -3 0 -3
950 2 -5.0962986584664263e+00 5.4284248247142175e-02 1.8105050248379698e+01 -1 0 1
168 2 1.0929681087579610e+01 8.5455148813176045e+00 4.6697009151202007e+00 -4 0 -3
575 2 7.1583060723160532e+00 7.7018033413692848e+00 1.5121710561286546e+01 0 0 0
67 1 9.0041862353659532e+00 4.1986996424001291e+00 1.8224491408571943e+01 -4 0 -3
727 1 8.0474299262772568e+00 4.7021986779260949e+00 1.4396437850783064e+01 0 0 1
114 2 7.2245276500093096e+00 1.1587883350722636e+00 1.4968226576473047e+01 -2 0 -1
425 2 1.2087017651824931e+01 2.3434728768018784e+00 3.7861660607078664e+00 -2 0 1
544 1 1.5915346735309601e+00 1.4436321107481418e+00 1.5476173785796622e+01 2 0 1
875 2 1.3162099017915869e+01 8.4431891300774318e+00 1.2398946634125641e+01 -3 0 1
1001 2 1.0976141450082416e+01 1.6874644044314806e+00 5.2856591211508386e+00 -1 0 1
496 1 5.7759336936153565e+00 1.2934498276659654e+00 7.7964811933215055e+00 0 0 1
655 1 4.9332952806694017e+00 8.5797803828497425e+00 1.8483713405175553e+01 -3 0 -1
337 1 3.4697069742338078e+00 5.3245214611968299e+00 3.2639261592267177e+00 -1 0 -1
278 2 4.2352131313205890e+00 8.5128473975402112e+00 9.3572188900045870e+00 -4 0 -1
221 2 7.2993058015421752e-01 7.9478850434783563e+00 1.8236663754601000e+01 -2 0 -3
844 1 7.5789951541459715e+00 -8.8889825182866344e-01 1.2215252784281807e+01 1 0 1
583 1 -2.3720040953086388e+00 6.3763788452424421e+00 1.2902345746444007e+01 -4 0 -4
584 2 -3.0725221146306412e+00 6.0547197872424237e+00 1.3501749355181714e+01 -4 0 -4
641 2 1.9417289406470055e+00 6.5041470276018067e+00 1.0655103628710519e+01 4 0 -1
110 2 6.8407279380740000e+00 2.2110487794057727e+00 6.6148795355571634e-03 1 0 -3
389 2 1.3423466277494832e+01 1.1784922364840655e-01 5.1422674744863412e+00 -1 0 0
47 2 1.0159138772542367e+01 6.2450312025091836e+00 7.7198280050239729e+00 -3 0 0
207 2 4.4331005622331574e+00 -2.0936901224538129e-01 1.5775068231527991e+01 3 0 0
808 1 7.8680917007636193e+00 4.7691398178604212e+00 8.6075529588976138e+00 -4 0 -1
735 2 8.7161384977549492e+00 9.9920061067535855e+00 5.7091804964201902e+00 -3 0 -1
577 1 3.0609045229069762e+00 5.3062365581637803e+00 1.5944070297422492e+01 0 0 0
19 1 1.2897619275664400e+01 6.4452772757686212e+00 5.4094430433734617e+00 -3 0 -3
1000 1 1.0633821415920337e+01 2.2298698433163464e+00 4.5110976428690277e+00 -1 0 1
294 2 -1.0031300444503111e+00 3.6225483188563432e+00 1.1812674938141789e+01 1 0 -3
390 2 1.4809694033831297e+01 -1.4696936235973612e-01 4.4701199428005145e+00 -1 0 0
531 2 9.0389702147459712e+00 -1.6945561951744765e+00 2.1663056056649399e+00 -1 0 0
521 2 8.1613952514267911e+00 9.1241591244591413e-02 9.2918261315529254e+00 -5 0 -2
813 2 1.0478894227570109e+01 3.4914116489778477e+00 1.1271702198647354e+01 -2 0 -1
912 2 1.1845896239827972e+01 -1.9243650029442283e-01 6.2905272951643871e+00 -2 0 1
549 2 1.4564249941311724e+01 8.2341381564100757e+00 9.1885327833343980e-02 -3 0 -3
670 1 -8.7293826363042637e-01 -1.2918640387316072e+00 7.1407322044326715e+00 -3 0 -1
771 2 -2.6177725042207953e+00 6.6131829291702502e+00 1.1379794413838393e+01 1 0 -3
857 2 1.8192071419777802e+00 8.5102940958364677e+00 7.9832687088692227e+00 -1 0 -3
809 2 7.4195334508694746e+00 4.4315410898250951e+00 7.7946349105532180e+00 -4 0 -1
866 2 1.2115883888610144e+00 3.7250523519824030e+00 1.8047818635088760e+01 -3 0 -1
94 1 -1.1365052243807239e+00 4.2119855167531135e+00 6.4068595972598539e+00 -1 0 -1
225 2 6.8690424550173166e+00 6.0142147828707957e+00 4.1221402524126494e-01 -2 0 -1
770 2 -1.9130507727671131e+00 6.1815547246623828e+00 1.0078393279657240e+01 1 0 -3
123 2 6.6207851177028587e+00 5.8418093630885890e+00 1.6897907397876164e+01 -2 0 -1
440 2 -1.0493649278678592e+00 5.1403032111304894e+00 1.3288356058134243e+01 -2 0 -2
383 2 1.5897735597551364e+01 4.4325668201675841e+00 2.2181699581284358e+00 -2 0 1
459 2 1.7225595297718773e+01 -1.6311537955260025e+00 1.9409297541915500e+00 -3 0 -2
499 1 2.1566503261313219e+00 3.4888490606063538e-01 1.1839074116673494e+01 1 0 1
910 1 1.2284673876441406e+01 7.1706154987478010e-01 6.2207596843015631e+00 -2 0 1
546 2 1.4527001060262226e+00 5.8515223078265821e-01 1.4999529972952194e+01 2 0 1
277 1 4.8681572554662704e+00 7.8238281842087787e+00 9.6873801326722528e+00 -4 0 -1
729 2 7.9826623682867988e+00 5.4000075107720411e+00 1.3711055020462755e+01 0 0 1
612 2 -3.9036731165242231e+00 2.7675349273656948e+00 1.1521292126862150e+01 0 0 1
674 2 2.6220132663235169e+00 9.0520189825339905e+00 8.5616174992961280e-01 0 0 -3
121 1 7.5770165754830936e+00 5.9602530259395081e+00 1.6794158977992801e+01 -2 0 -1
911 2 1.2848620922656874e+01 7.5387081566754688e-01 7.0408645960036438e+00 -2 0 1
424 1 1.3042327109966525e+01 2.4317657845723035e+00 3.5026846285531628e+00 -2 0 1
811 1 9.9398769877907043e+00 4.3295982636776360e+00 1.1318828069248893e+01 -2 0 -1