LAMMPS data file via write_data, version 3 Mar 2020, timestep = 1000000

1008 atoms
2 atom types

2.4203682952044758e-01 1.8157518170468897e+01 xlo xhi
5.8696134074217809e-02 2.2511692865921383e+01 ylo yhi
2.3580454372186743e-01 1.9269911456270670e+01 zlo zhi
8.1730546782217250e-02 -6.6874028064775484e+00 -2.7485889221778324e-02 xy xz yz

Masses

1 16
2 2

Atoms # atomic

1 1 6.6826361928925975e+00 1.2110870083200436e+00 4.6925688478257488e+00 0 0 0
19 1 1.3442079135422851e+00 2.6768503022108776e+00 4.0082134913444978e-01 0 0 0
3 2 6.9622881888223125e+00 1.5665479308936332e+00 3.8113160404120943e+00 0 0 0
4 1 4.1793738160347473e+00 1.0209993348979642e+00 5.2212228589393765e+00 0 0 0
5 2 5.1162994436809690e+00 1.1103325645207225e+00 4.9713071030696128e+00 0 0 0
6 2 4.0238569393817301e+00 1.5815605498652985e+00 6.0160829991381428e+00 0 0 0
7 1 -2.4050569250600851e-01 6.3199185369446420e+00 4.9158264554527662e+00 0 0 0
8 2 -1.2554248371750121e-01 6.0314951611299330e+00 5.8569975409943487e+00 0 0 0
9 2 -8.4064510791987690e-01 7.1288731198895423e+00 4.8292295892530861e+00 0 0 0
10 1 2.5341599737937281e+00 6.2153598445642189e+00 4.5582334929911754e+00 0 0 0
11 2 1.5783473019497676e+00 6.3193807643835997e+00 4.8587431032221673e+00 0 0 0
12 2 2.8713833946241261e+00 7.1212302680561619e+00 4.7069357490130566e+00 0 0 0
221 2 4.7778227892198197e+00 1.0676307268518782e+01 3.0431982156623985e+00 0 0 0
14 2 4.9706681882680810e+00 4.9656081712307527e+00 8.6111317720831444e+00 0 0 0
154 1 1.2948063864507819e+01 7.0448273260276928e-01 1.8766331429134528e+00 0 0 0
17 2 5.1163717854280275e+00 3.8599035230622283e+00 5.2129048506921616e-01 0 0 0
18 2 5.7940793548505116e+00 5.1162699898012836e+00 1.1891193150492056e+00 0 0 0
63 2 8.6166906810408026e+00 6.0391517569549720e+00 1.2332146163444935e+00 0 0 0
521 2 1.9517153108348335e+00 5.8013556032104630e+00 9.2594099831977346e+00 0 0 0
21 2 1.4071500172964171e+00 2.3744500885180808e+00 1.3203406291399544e+00 0 0 0
304 1 1.3388668884610111e+01 1.0615805587173925e+01 3.6282115249918956e+00 0 0 0
135 2 -1.7898641980070593e+00 2.4285454542925162e+00 6.4489671019136479e+00 1 0 0
302 2 1.4964742133928871e+01 1.0366576605308566e+01 6.8439796496313532e+00 0 0 0
25 1 4.9511591414873486e+00 6.2381278650194005e+00 7.2386653431351755e+00 0 0 0
26 2 5.6057587713660784e+00 6.9699220468654186e+00 7.3857762886358742e+00 0 0 0
27 2 4.0844159384371537e+00 6.5682992779447522e+00 7.5425427035105335e+00 0 0 0
28 1 5.8594689211930069e+00 6.3211594001181215e+00 2.4053136124827259e+00 0 0 0
29 2 5.6228287654574514e+00 5.9747454836475260e+00 3.2817243530183391e+00 0 0 0
30 2 5.3625241328085824e+00 7.1543112316623461e+00 2.1555112361834858e+00 0 0 0
31 1 1.4493794916165532e+00 1.0839676274618377e+00 2.8032131516460939e+00 0 0 0
32 2 2.4386793313387178e+00 9.8950662087513164e-01 2.6155357787626374e+00 0 0 0
33 2 1.3808516692042729e+00 1.3062425475104529e+00 3.7455323138085617e+00 0 0 0
34 1 8.4423071606352096e-02 1.3146869206564167e+00 7.3733169837637584e+00 0 0 0
67 1 -2.1716422892071652e+00 6.7032210042608065e-01 8.5189442786137288e+00 0 0 0
36 2 2.5125069980803616e-01 1.7858063693870236e+00 8.1769395553075590e+00 0 0 0
37 1 6.6471736483350981e+00 2.7742365586619857e+00 2.5860625743829702e+00 0 0 0
38 2 5.7402671602614257e+00 3.1004859747558839e+00 2.6929991831899400e+00 0 0 0
39 2 7.1506092071291896e+00 3.5688666787986705e+00 2.9305624144834490e+00 0 0 0
40 1 3.8498426714979117e+00 2.4107996102475271e+00 7.5363951417116883e+00 0 0 0
41 2 4.7834463841829074e+00 2.7020430707649981e+00 7.5468378815540502e+00 0 0 0
42 2 3.3584725547615917e+00 3.1289228628023387e+00 7.0899821379189545e+00 0 0 0
43 1 5.2341165918076360e-02 5.1054082801199234e+00 7.6694112254268028e+00 0 0 0
44 2 -5.5386927135379471e-01 4.3549414956304231e+00 7.4631759489023795e+00 0 0 0
45 2 -1.9232029181713184e-01 5.4559032119682005e+00 8.5877817817432458e+00 0 0 0
46 1 1.9185075597055956e+00 4.8629354483765299e+00 2.2793514656013536e+00 0 0 0
47 2 1.0362184942211106e+00 4.5645629915535615e+00 2.5906702149890766e+00 0 0 0
48 2 2.1389814334572570e+00 5.5232768186475472e+00 2.9701856993223839e+00 0 0 0
49 1 6.3995283719536555e+00 3.2522042144291139e+00 6.8930097132677561e+00 0 0 0
50 2 6.0975312954146315e+00 3.7178197394900936e+00 6.0986614044820548e+00 0 0 0
51 2 6.9565055955837654e+00 2.5598813429488048e+00 6.5196150123853434e+00 0 0 0
52 1 4.1439442909756146e+00 3.3589732473635010e+00 3.4628037963863045e+00 0 0 0
53 2 3.2856577243607954e+00 3.6185679006864948e+00 3.0788844904367130e+00 0 0 0
54 2 4.1038124707717270e+00 2.5564902596171843e+00 3.9812649100133224e+00 0 0 0
55 1 -5.2602166300549702e-01 4.0600753613848068e+00 3.2927842173914472e+00 0 0 0
56 2 -5.6768026248574610e-01 4.9259224365161707e+00 3.7263035602989483e+00 0 0 0
57 2 -4.4076613721148572e-02 3.5250146657445947e+00 3.9743643910138555e+00 0 0 0
58 1 2.4070232308162689e+00 4.2406813598230855e+00 6.4198668832385213e+00 0 0 0
59 2 2.7464385123116690e+00 5.0440755575859306e+00 5.9566868677375773e+00 0 0 0
60 2 1.6702778032492436e+00 4.5941933764162872e+00 6.9993642398004132e+00 0 0 0
61 1 8.3748738167715633e+00 6.8754389732571939e+00 1.7192533008455377e+00 0 0 0
62 2 7.5081606558740734e+00 6.7177325397665806e+00 2.1629803061974733e+00 0 0 0
753 2 4.4225229012956913e+00 9.4862878472752641e+00 8.6956557470171880e+00 0 0 0
64 1 2.3354640418674468e+00 7.1871225748409211e+00 8.0490302472376172e+00 0 0 0
65 2 1.4599965134868298e+00 7.6482653123681885e+00 7.6245851496199606e+00 0 0 0
66 2 2.6713347583182578e+00 7.9021238620147267e+00 8.6241530803618645e+00 0 0 0
167 2 1.1594223105220793e+01 5.7496239195134367e+00 9.4337534979163196e-01 0 0 0
68 2 -2.4477191321357963e+00 1.5555003148099897e+00 8.7768756071457990e+00 0 0 0
220 1 3.8576924163498774e+00 1.0809705347165115e+01 3.4019719771128250e+00 0 0 0
72 2 4.2973105836251095e+00 1.2949847339213105e+00 1.4203647332516853e+00 0 0 0
73 1 5.5601405852526025e+00 5.3037620693731631e+00 4.8705622635076997e+00 0 0 0
74 2 5.1866809149228335e+00 5.8171636387215520e+00 5.6240820725167247e+00 0 0 0
75 2 4.8696078094090396e+00 4.7761150015345120e+00 4.5682439085509161e+00 0 0 0
76 1 8.9463419253671006e-01 2.5772158726247554e+00 5.0282879420350275e+00 0 0 0
77 2 5.2470633283352375e-01 2.0367373042329415e+00 5.8092039189270945e+00 0 0 0
78 2 1.5399193982938226e+00 3.1976599422955676e+00 5.4107716283877947e+00 0 0 0
80 2 6.9709960223921676e+00 1.8676211679911272e+00 8.4308562092715011e-01 0 0 0
86 2 1.5995981138688171e+01 4.6091749918818065e-01 5.2481299664742949e+00 0 0 0
668 2 1.2779373033422008e+01 1.7613776167986732e+00 9.0551500036141164e+00 0 0 0
85 1 1.5313932593650380e+01 1.1609411140490939e+00 5.1640178444204068e+00 0 0 0
87 2 1.5443826428124483e+01 1.6030725391874621e+00 4.2983845811590582e+00 0 0 0
88 1 1.2699381624820141e+01 1.1491200255583591e+00 5.4696239046826696e+00 0 0 0
89 2 1.2604260974618104e+01 1.8670733754957696e+00 4.8021117903534769e+00 0 0 0
90 2 1.3587259696324116e+01 8.1726201239784635e-01 5.3285645203224181e+00 0 0 0
91 1 8.5211849585958390e+00 6.4553825470120438e+00 5.2132959922672697e+00 0 0 0
92 2 8.3878792179006485e+00 5.6275548277466392e+00 4.6520372100157497e+00 0 0 0
93 2 9.4752220011390147e+00 6.7211775985455819e+00 5.2271245511624818e+00 0 0 0
94 1 1.1311994683974270e+01 6.4004704977257516e+00 4.8544267341102785e+00 0 0 0
95 2 1.1913471522652671e+01 7.1307596210005642e+00 5.0193048991123721e+00 0 0 0
96 2 1.1415178210618786e+01 5.7880786165565752e+00 5.6019062683024208e+00 0 0 0
189 2 2.3130607067937872e+00 1.0679448944112362e+01 5.5650198706291154e-01 0 0 0
163 1 1.6152390635134395e+01 1.7166294413667085e+00 4.5451255178912919e-01 0 0 0
585 2 3.6868748915055747e+00 1.8456094728035264e+00 9.0363816753225947e+00 0 0 0
101 2 1.4541882743713865e+01 4.8851644679909478e+00 1.4678662807380627e+00 0 0 0
117 2 9.5203378449553000e+00 8.9901425504357779e-01 2.6502232577894391e+00 0 0 0
106 1 9.3188023664653628e+00 3.1998789881957341e+00 9.6668865957871226e+00 0 0 0
152 2 7.0865178946101199e+00 2.5768436616442059e-01 7.5659872133341475e+00 0 0 0
35 2 -6.8220531442008125e-01 7.2971819799326165e-01 7.6572973689239952e+00 0 0 0
109 1 1.3801900311389595e+01 5.9476410682524250e+00 7.4034965581322778e+00 0 0 0
110 2 1.4103513984210743e+01 5.2085829760294624e+00 7.9473739188926356e+00 0 0 0
111 2 1.2923088366503553e+01 6.2261691613984045e+00 7.7609595132528479e+00 0 0 0
112 1 1.4956336421393825e+01 6.0963511689049206e+00 2.7876284347787537e+00 0 0 0
113 2 1.4457538008013037e+01 6.9319758922345436e+00 2.6653724423659884e+00 0 0 0
114 2 1.5747348139790224e+01 6.3760170999639794e+00 2.3096523238251989e+00 0 0 0
115 1 1.0300539483612894e+01 1.4168748799006443e+00 2.9378903797642777e+00 0 0 0
116 2 1.0480902605771639e+01 2.0738312538944164e+00 2.2637439349401629e+00 0 0 0
248 2 7.3374572639715794e+00 7.9332435504888439e+00 6.1851506571263304e-01 0 0 0
118 1 8.6239731246232747e+00 1.4452591846934699e+00 7.5628219819653530e+00 0 0 0
119 2 8.8847705287569507e+00 2.1656946341245717e+00 8.1956594851183020e+00 0 0 0
120 2 9.0935995706975312e+00 1.7059712078455960e+00 6.7393235891142860e+00 0 0 0
121 1 1.5440597692730048e+01 2.4017769179957500e+00 2.8052884371544189e+00 0 0 0
122 2 1.5981795764642225e+01 3.1887669555622433e+00 2.9278727440036381e+00 0 0 0
123 2 1.5460726772448414e+01 2.2073308220124805e+00 1.8397350151050302e+00 0 0 0
124 1 1.3148184195788847e+01 2.6543884335618411e+00 7.6398042583819263e+00 0 0 0
125 2 1.4080645603440711e+01 2.8633014752913000e+00 7.4095218403124514e+00 0 0 0
126 2 1.2806857817464865e+01 2.0015651622087445e+00 6.9411411177896412e+00 0 0 0
127 1 8.4692767731941156e+00 4.7490257914125573e+00 7.3884176376644817e+00 0 0 0
128 2 7.6013825032494848e+00 4.3157344158628055e+00 7.1082072443319735e+00 0 0 0
129 2 8.7559889528269537e+00 5.3269929859971912e+00 6.6302503865662032e+00 0 0 0
130 1 1.1189450670085485e+01 5.0876965125710631e+00 2.3873903641399283e+00 0 0 0
131 2 1.1681227360207416e+01 4.2304841345197204e+00 2.3856302015995694e+00 0 0 0
132 2 1.1663138215238412e+01 5.6666459400741456e+00 3.0086426560079547e+00 0 0 0
134 2 1.5495607743345706e+01 3.7867446610519662e+00 5.9013871659485995e+00 0 0 0
136 1 1.2657024444111604e+01 3.0665424956930907e+00 3.7019894502842372e+00 0 0 0
137 2 1.2708950259175893e+01 3.8630041672540432e+00 4.2069958389966029e+00 0 0 0
138 2 1.3550386719982049e+01 3.1182448375342133e+00 3.2024014571152790e+00 0 0 0
139 1 8.5045014901383773e+00 4.3765136317584679e+00 3.6726878617113519e+00 0 0 0
140 2 9.2588555861677051e+00 4.7802317397391150e+00 3.1502733055490446e+00 0 0 0
141 2 8.8867532549926995e+00 3.6209503701698020e+00 4.1558332860753175e+00 0 0 0
142 1 1.1203946601030161e+01 3.9439090068173766e+00 6.5224065633241199e+00 0 0 0
143 2 1.1944918908005929e+01 3.6142440725911453e+00 7.0867959659228630e+00 0 0 0
144 2 1.0675992445290360e+01 4.4170281017302591e+00 7.2111041533263318e+00 0 0 0
147 2 1.6811910857026604e+01 7.5073869151702253e+00 1.0285838897558350e+00 0 0 0
148 1 1.1437279632686112e+01 6.9225598282631280e+00 8.2313510268155614e+00 0 0 0
149 2 1.1263341575389207e+01 6.1435675181232643e+00 8.8051042199206773e+00 0 0 0
150 2 1.1876849340434969e+01 7.5234665160087024e+00 8.8788813770778692e+00 0 0 0
165 2 1.6751747427511681e+01 9.9768627406789578e-01 8.1189596725726987e-01 0 0 0
23 2 1.1790688407360341e+00 3.4477901930831707e+00 9.6366731457828259e+00 0 0 0
153 2 6.4342152486780106e+00 1.2673543426616234e+00 8.7264739982713682e+00 0 0 0
83 2 2.1947570169985156e+00 5.6252916394849573e+00 9.3930376650915159e-01 0 0 0
155 2 1.3121018007610967e+01 1.4688601474336485e+00 1.2188120032108130e+00 0 0 0
486 2 1.1422901185009682e+01 3.0847602963182719e-01 8.7800363926843019e+00 0 0 0
157 1 1.4363904100379242e+01 4.7431963577924634e+00 4.9869910656421794e+00 0 0 0
158 2 1.4845374927988182e+01 5.3140887858900223e+00 4.4045067128605480e+00 0 0 0
159 2 1.4135119225550055e+01 5.3809611935634152e+00 5.7135472185087250e+00 0 0 0
160 1 9.5246388901121222e+00 2.5903496738039284e+00 5.1822874458619115e+00 0 0 0
161 2 1.0269991189385159e+01 3.1573860493927950e+00 5.6486861345531718e+00 0 0 0
162 2 9.9174195345719678e+00 2.0122645279765754e+00 4.4692406123285773e+00 0 0 0
20 2 6.0957357498052234e-01 3.3243115849819080e+00 4.3740683948293169e-01 0 0 0
70 1 4.1258036000839882e+00 4.6930371681967298e-01 2.0117783165937735e+00 0 0 0
190 1 5.8964610524942263e-01 1.0309448128227432e+01 9.6121461927291758e+00 0 0 0
169 1 6.7554685615527319e+00 8.2697285787065358e+00 4.8877289601228400e+00 0 0 0
170 2 7.2554725123326680e+00 7.4575978250430746e+00 5.0460541579559797e+00 0 0 0
171 2 7.1067623817858232e+00 8.9741127312776445e+00 5.4616243671270723e+00 0 0 0
172 1 3.8940040010386374e+00 8.5411851464479884e+00 4.9842274309402805e+00 0 0 0
173 2 3.7162336874246309e+00 9.3208496749678904e+00 4.4487529950048055e+00 0 0 0
174 2 4.8502523927856824e+00 8.2849001774250119e+00 4.9947568793715593e+00 0 0 0
100 1 1.4585963727734768e+01 4.6991163062143784e+00 5.2936366717391881e-01 0 0 0
247 1 6.7031495105159555e+00 8.5880094928923718e+00 3.5746908622499507e-01 0 0 0
192 2 3.4371465179700422e-01 9.9456604629214187e+00 8.7044404969385916e+00 0 0 0
199 1 1.3851447639506431e+00 8.6422589308975812e+00 2.7932767627443553e+00 0 0 0
200 2 1.2687934940190542e+00 9.3374646762770279e+00 2.1372831718312426e+00 0 0 0
201 2 7.1578338603702629e-01 7.9432112658099472e+00 2.5694866069828217e+00 0 0 0
202 1 3.1822692150190512e-01 8.5023994696127847e+00 7.3526839324391124e+00 0 0 0
203 2 -6.7326699941482104e-01 8.3313653384761928e+00 7.5672349229172564e+00 0 0 0
204 2 3.9010770376027804e-01 8.8710837486898466e+00 6.4872182221371064e+00 0 0 0
205 1 6.2920175414218171e+00 1.0045655494320876e+01 2.8404498829034988e+00 0 0 0
206 2 6.4456357369331627e+00 9.3632816136078336e+00 3.5663607056140187e+00 0 0 0
207 2 6.3699222108852922e+00 9.4586642641124001e+00 2.0168651527255443e+00 0 0 0
208 1 4.6231718950575900e+00 1.0371903591113286e+01 7.1490255633982853e+00 0 0 0
777 2 6.1510060580693384e+00 1.1130712402000134e+01 9.7030604006040218e+00 0 0 0
210 2 4.2985576058665504e+00 9.6372664662334877e+00 6.5458739069025702e+00 0 0 0
305 2 1.2500625237210844e+01 1.0612496824189378e+01 3.1399159035255311e+00 0 0 0
15 2 3.9002476399842516e+00 4.5931081220994603e+00 9.5292460727908743e+00 0 0 0
84 2 3.1717290412882488e+00 6.7136206075430049e+00 2.7733735248002167e-01 0 0 0
601 1 1.7375740347508785e+01 4.7218739024617067e+00 3.0962259346776227e-01 0 0 1
146 2 1.7480014078354461e+01 6.1413716574691382e+00 1.1348611816859187e+00 0 0 0
235 1 -2.4215629322472392e+00 8.2204954152329126e+00 8.1921650913901107e+00 0 0 0
236 2 -2.5172610141704661e+00 8.9269853446716887e+00 8.8887268703434312e+00 0 0 0
238 1 4.1228604457890299e+00 7.9944812025821141e+00 1.2975294560641080e+00 0 0 0
239 2 3.4403570724250288e+00 8.1079834163092173e+00 1.9510572456453610e+00 0 0 0
240 2 4.2495561163384936e+00 8.8290506839432776e+00 7.9204838706160352e-01 0 0 0
244 1 6.0767960953546463e-01 9.7938516640590851e+00 5.0848852797168131e+00 0 0 0
245 2 9.5675958145730178e-01 9.2412348236135973e+00 4.3550096326790797e+00 0 0 0
246 2 1.4328614618795350e+00 1.0157455615095772e+01 5.5043920948377050e+00 0 0 0
145 1 1.7236751733619005e+01 6.9197199127883495e+00 1.6780931941741286e+00 0 0 0
671 2 8.5362153846157103e+00 5.7323517962690778e+00 8.8365093810467439e+00 0 0 0
253 1 1.5949310789414199e+01 8.4102178604244990e+00 4.9076463502432350e+00 0 0 0
255 2 1.5896135920809888e+01 8.6897147521622564e+00 4.0096586922682009e+00 0 0 0
256 1 1.3037237683903184e+01 8.4301041496683240e+00 5.3654562376282984e+00 0 0 0
257 2 1.3901098417912912e+01 7.9241031650186171e+00 5.4635020120100561e+00 0 0 0
258 2 1.3235298104191784e+01 9.1423998554484598e+00 4.6537771557995784e+00 0 0 0
224 2 -2.4804780931774018e-01 1.1022375587786430e+01 4.1869101481848263e+00 0 0 0
272 2 9.7854628585827701e+00 9.8364403370808251e+00 1.1462634060285879e+00 0 0 0
301 1 1.5701101189515848e+01 1.0715659961718687e+01 6.2386076658807319e+00 0 0 0
276 2 9.6149661992409108e+00 1.0309101861175000e+01 8.6943191312517083e+00 0 0 0
283 1 1.0510752116680013e+01 8.5755363004127751e+00 2.4930578657207092e+00 0 0 0
284 2 1.0580183681476894e+01 8.8439467494041306e+00 3.3987451428459678e+00 0 0 0
285 2 9.7568995845520092e+00 7.9473289278387327e+00 2.2853549239136455e+00 0 0 0
286 1 9.6934421218205475e+00 8.8137495531611876e+00 7.2389802382644435e+00 0 0 0
287 2 1.0315864737770884e+01 8.1221483105669119e+00 7.4890700389003877e+00 0 0 0
288 2 8.7869827683520967e+00 8.5394434293099675e+00 7.4618054806593053e+00 0 0 0
289 1 1.5475267153996077e+01 9.7967830685171045e+00 2.5098719679500094e+00 0 0 0
602 2 1.6414836099194137e+01 4.6488192565213602e+00 4.4741370638784306e-01 0 0 0
291 2 1.5434917799947565e+01 9.4771380128688474e+00 1.6049162900944316e+00 0 0 0
292 1 1.3237680583031391e+01 1.0370201696739519e+01 7.6300930135977039e+00 0 0 0
103 1 1.0395915318837291e+01 2.7319584408962672e+00 2.7320294708078774e-01 0 0 0
294 2 1.2953955995106121e+01 9.6254909436669838e+00 7.0407836992946358e+00 0 0 0
108 2 8.3959133315361214e+00 3.5086727619224765e+00 9.6584023271918813e+00 0 0 0
22 1 5.7918956855996351e-01 2.7196388034987193e+00 9.6436130617732481e+00 0 0 0
306 2 1.4137299132725275e+01 1.0302970785336855e+01 3.0101621920818360e+00 0 0 0
273 2 1.0955674524384543e+01 1.0208840418136001e+01 3.5154822128032037e-01 0 0 1
319 1 6.7696380906993330e+00 8.0429068222379705e+00 8.1334471837903166e+00 0 0 0
320 2 6.4391696732391610e+00 8.8282150463399649e+00 8.6060414845593289e+00 0 0 0
321 2 7.2233656224845024e+00 7.4507311065320057e+00 8.8373085644359204e+00 0 0 0
322 1 1.3163760093359496e+01 7.6548618730600770e+00 1.7037894469907140e+00 0 0 0
323 2 1.2255698396484314e+01 7.9627523535109290e+00 1.9358889073046350e+00 0 0 0
324 2 1.3043879719579651e+01 6.9480419169196095e+00 1.1306252170713238e+00 0 0 0
328 1 1.0323582475795405e+01 9.9984795262171051e+00 4.7353568596852726e+00 0 0 0
329 2 9.8675809916276496e+00 9.5922943393836899e+00 5.5190401985744577e+00 0 0 0
330 2 9.5919370200569798e+00 1.0504846770637068e+01 4.2886253489213741e+00 0 0 0
13 1 4.8546744170329816e+00 4.7406169502945055e+00 9.5485318452533843e+00 0 0 0
209 2 3.9730411641944139e+00 1.1054711877755652e+01 7.1400150419568051e+00 0 0 0
219 2 6.3139575910850452e+00 1.0832521575912196e+01 6.7768865816332591e+00 0 0 0
254 2 1.5978760117765269e+01 9.2707497891192645e+00 5.4447082024603031e+00 0 0 0
133 1 1.5869427781037913e+01 3.3616703639901826e+00 6.7044249369103097e+00 0 0 0
237 2 1.4685782816592797e+01 7.7853691722834073e+00 7.8975851947975677e+00 0 0 0
151 1 6.2363599226722144e+00 3.7029418238711342e-01 8.1669378557436332e+00 0 0 0
780 2 1.3124834783668380e+01 9.1748023399993315e+00 6.0943718781963829e-01 0 0 0
69 2 1.5143467770467147e+01 3.6728770164662611e-01 7.7999614428870991e+00 0 0 0
217 1 7.0450444658387337e+00 1.0839667236045591e+01 6.0666466956085934e+00 0 0 0
836 2 1.2743180774650579e+01 9.5820990181379084e+00 9.2059584608863059e+00 0 0 0
156 2 1.2141410711819265e+01 9.5008553806492091e-01 2.3627126740108655e+00 0 0 0
2 2 7.1924321888589606e+00 4.3117087980923202e-01 4.8072431569690952e+00 0 0 0
293 2 1.2674325044618868e+01 1.1147302766816161e+01 7.2533552469577813e+00 0 0 0
584 2 2.8217788932252037e+00 6.2171240594263544e-01 9.4838771307848297e+00 0 0 0
290 2 1.6150336964870064e+01 1.0493503531853694e+01 2.5813010844444522e+00 0 0 0
776 2 7.7202431916088177e+00 1.0930271645117644e+01 9.6933897020411219e+00 0 0 0
16 1 5.7875061748176133e+00 4.6061444384630432e+00 3.6345441296747150e-01 0 0 0
271 1 9.9878234951191622e+00 1.0164520143423651e+01 2.4566256747137966e-01 0 0 0
102 2 1.4225119983601541e+01 3.8124884516871616e+00 3.8550302312882823e-01 0 0 0
399 2 7.9732416089327831e+00 4.2457970215755575e-01 1.2364803335698384e+00 0 0 0
274 1 9.6279278407276170e+00 1.0666185575151911e+01 9.5538676840356356e+00 0 0 0
693 2 -1.4820097183326424e+00 1.0473618806427604e+01 9.7162835862474246e+00 0 0 0
187 1 1.3606779520166410e+00 1.0484226769169499e+01 6.7392383399999023e-01 0 0 0
485 2 1.0131803172088409e+01 3.0680482569086531e-01 8.0607484623647920e+00 0 0 0
751 1 3.9565285775504453e+00 8.9540888348916585e+00 9.4029625737658904e+00 0 0 0
670 1 8.2412628559642336e+00 6.3967774221460134e+00 9.5465428709572908e+00 0 0 0
658 1 9.2905342810096965e+00 8.8743195547602716e-01 1.0765962463892796e+01 0 0 0
834 2 5.6216567854448050e+00 1.0603575504136701e+01 1.3995105144468784e+01 0 0 0
574 1 5.6948763922911017e-01 6.5303290223933119e-01 1.1479485420590247e+01 0 0 0
832 1 6.1160909216337789e+00 9.9261121893520539e+00 1.4473946847058919e+01 0 0 0
79 1 5.7315077640924095e-01 1.3833087560868047e+00 1.9053845538183594e+01 0 0 0
828 2 8.8549276189756210e+00 8.5946980831095843e+00 1.1724867002449002e+01 0 0 0
610 1 6.4367004866776281e+00 2.5415642511526824e+00 1.8889030514202226e+01 0 0 0
536 2 -2.5723536161829657e+00 4.4905509626669859e-01 1.2032009620652849e+01 0 0 0
660 2 8.8185093850265996e+00 1.7411002519219343e-01 1.0229192792427691e+01 0 1 0
612 2 5.4920832731397908e+00 2.8108130019194282e+00 1.9016435962759353e+01 0 0 -1
794 2 1.2744599140339556e+01 1.0731370609448184e+01 1.2306350303575162e+01 0 0 0
823 1 3.4689547340630273e+00 7.6832529705994279e+00 1.7825522038844497e+01 0 0 0
732 2 -3.8205679131332460e-01 1.1204490661772564e+01 1.6362433795543765e+01 0 0 0
837 2 1.2272868448518450e+01 9.4171887017606526e+00 1.0725527273649144e+01 0 0 0
659 2 1.0139955562087756e+01 4.5926192796738324e-01 1.0989616261607688e+01 0 1 0
270 2 7.2526335954626600e+00 1.1226479113260018e+01 1.9154609670057603e+01 0 0 0
164 2 8.8419726985591396e+00 1.1785270138431450e+00 1.8914468118390019e+01 0 0 0
655 1 3.2254543104532214e+00 5.5425402419345127e-01 1.7783212956666056e+01 0 0 0
505 1 3.1701366812788532e+00 9.1585180783447795e-01 1.4445763851101683e+01 0 0 0
506 2 3.1735140389330914e+00 1.6682042840304743e+00 1.5125225907014386e+01 0 0 0
692 2 -2.9394822399309324e+00 1.1065063876911458e+01 1.0011773772167452e+01 0 0 0
508 1 4.6150897059392726e-01 1.0373998042929207e+00 1.4465080323108154e+01 0 0 0
586 1 -7.9573372475304804e-01 6.0661325580100911e+00 9.8962316257788210e+00 0 0 0
721 1 3.2215659129903678e+00 1.0604500364542593e+01 1.5665279893514100e+01 0 0 0
511 1 -3.8528676537921802e+00 6.3628747481029970e+00 1.4811338242104558e+01 0 0 0
512 2 -4.1559006445950173e+00 5.6111753259515682e+00 1.4132522538881682e+01 0 0 0
513 2 -3.9199970636272585e+00 5.8375247589413171e+00 1.5669111103807671e+01 0 0 0
514 1 -1.1858008069582437e+00 6.5737749288630241e+00 1.4639874531243620e+01 0 0 0
515 2 -1.1524078711032204e+00 5.7532837564117463e+00 1.5245058182052791e+01 0 0 0
516 2 -2.1693970271651559e+00 6.6518584462373029e+00 1.4641331154143934e+01 0 0 0
826 1 9.4796430334904009e+00 8.2821355915941997e+00 1.1052292029293914e+01 0 0 0
519 2 1.7535776394280020e+00 5.3058053717158300e+00 1.8063744464043282e+01 0 0 0
166 1 5.3118718208092295e+00 6.0189459564422796e+00 1.9130794964780385e+01 0 0 0
522 2 1.8060366451795318e+00 5.3710786666152490e+00 1.0743889301952249e+01 0 0 0
528 2 -3.5317029488193317e+00 2.8987161790333418e+00 1.9047734229701362e+01 0 0 -1
743 2 9.4791261680994499e-02 7.3529815533069272e+00 1.0871475357108684e+01 0 0 0
525 2 -2.1661301202779333e+00 2.2389570514482848e+00 1.0989541087360641e+01 0 0 0
696 2 -1.9585274350375652e+00 1.1178187818442288e+01 1.9001406739721212e+01 0 0 0
527 2 -2.7092661998189644e+00 2.0705688812441059e+00 1.8111665861573243e+01 0 0 0
529 1 1.2379452478372421e+00 6.4700437518552718e+00 1.6879891703770241e+01 0 0 0
530 2 1.0193740195274490e+00 6.3121958398922899e+00 1.6002636859053197e+01 0 0 0
531 2 3.9555714999669433e-01 6.7385716086617800e+00 1.7349803910945887e+01 0 0 0
532 1 1.9514376312667459e+00 6.2920572699794102e+00 1.2127531672503480e+01 0 0 0
533 2 2.8373235171893461e+00 6.5501366458463508e+00 1.1867669380939098e+01 0 0 0
534 2 2.0422949014107630e+00 5.9624482087363040e+00 1.3094353208602275e+01 0 0 0
535 1 -1.9815489300697817e+00 1.1790582073558862e+00 1.2324669962177145e+01 0 0 0
593 2 8.9211229095992373e+00 2.4754079053558808e-01 1.4556175260274328e+01 0 0 0
537 2 -1.0519786268074069e+00 9.1548081907526591e-01 1.2081112023407721e+01 0 0 0
538 1 -3.0690650030810613e+00 1.0238818916598063e+00 1.7034678571802715e+01 0 0 0
188 2 -5.5621922127176191e+00 9.6932913161267091e+00 1.9144760942873098e+01 0 0 0
540 2 -2.8819691518883861e+00 1.1921350536240274e+00 1.6105150020449209e+01 0 0 0
541 1 3.1967223453302029e+00 2.6334911440877451e+00 1.2134912223124168e+01 0 0 0
542 2 3.2396557029374806e+00 1.9612227762233270e+00 1.2868053844887989e+01 0 0 0
543 2 3.3681681535231154e+00 2.1384410854130214e+00 1.1303153355421617e+01 0 0 0
544 1 7.2523527410319488e-01 2.7416844250035228e+00 1.6601273748484125e+01 0 0 0
545 2 6.9076099513372835e-01 2.3987112848633920e+00 1.7514182761239645e+01 0 0 0
546 2 6.3755796700842371e-01 2.0231363146224961e+00 1.5917249467497523e+01 0 0 0
547 1 -3.7785020759471761e+00 4.6368728278539182e+00 1.6979260996897594e+01 0 0 0
548 2 -4.5283790321475550e+00 4.0921003526328148e+00 1.6615989958247333e+01 0 0 0
549 2 -4.0572837849840226e+00 5.1904449197989679e+00 1.7754708533887936e+01 0 0 0
550 1 -1.5609815071999535e+00 4.9627503586065451e+00 1.2384189272922917e+01 0 0 0
551 2 -9.3991381118999140e-01 4.1864428710110957e+00 1.2528534673734701e+01 0 0 0
552 2 -1.2381573147446345e+00 5.5766909345489912e+00 1.3094283132126479e+01 0 0 0
553 1 3.3472931806682835e+00 3.4269912483089362e+00 1.5796821354163276e+01 0 0 0
554 2 2.6298446722917879e+00 3.2399949782306896e+00 1.6433752855636158e+01 0 0 0
555 2 4.1593924899076242e+00 3.6284755890431466e+00 1.6313770827950108e+01 0 0 0
556 1 6.3839533972063389e-01 3.3476770818578880e+00 1.2904714463095575e+01 0 0 0
557 2 1.5033368569791348e+00 3.2094932939408021e+00 1.2424875147365150e+01 0 0 0
558 2 5.0396085351848985e-01 2.4814593910794542e+00 1.3299082225380170e+01 0 0 0
559 1 -4.1143445708543585e+00 4.0654706199222321e+00 1.3239945138930254e+01 0 0 0
560 2 -3.3077317194714317e+00 4.4199876955938278e+00 1.2782523162723610e+01 0 0 0
561 2 -3.8716513225055316e+00 3.2471295552687289e+00 1.3692069859199011e+01 0 0 0
562 1 -1.5675474996309395e+00 3.9787481935325664e+00 1.5790334923719300e+01 0 0 0
563 2 -7.8836918275878620e-01 3.5435884572403351e+00 1.6152901155401032e+01 0 0 0
564 2 -2.2914513497727165e+00 4.2057945839936615e+00 1.6426280091160585e+01 0 0 0
565 1 4.6206226663350822e+00 7.1871653983365880e+00 1.1398125075432491e+01 0 0 0
566 2 4.3689633569041169e+00 7.7793403161629673e+00 1.0702719476938942e+01 0 0 0
567 2 4.9312332867564965e+00 6.2898617329805910e+00 1.1191433333779035e+01 0 0 0
568 1 -1.2550652551655821e+00 6.8229466321331502e+00 1.7822161669226219e+01 0 0 0
569 2 -1.1814785428859356e+00 6.0176475282921515e+00 1.8346643531176667e+01 0 0 0
570 2 -1.1142852101051135e+00 7.5462514977269901e+00 1.8417838122523854e+01 0 0 0
807 2 1.2403378685785663e+01 1.0094237632932732e+01 1.5545415833149294e+01 0 0 0
572 2 -5.5299065203228723e+00 1.4428432341554220e+00 1.8130826102330310e+01 0 0 0
797 2 1.0578919312459949e+01 1.0428845383633638e+01 1.6933540100387077e+01 0 0 0
332 2 9.5900748704260810e+00 9.2944798114390572e+00 1.8680610207288787e+01 0 0 0
576 2 6.0652768042057126e-01 1.4973133202124973e+00 1.0971623928573939e+01 0 0 0
577 1 1.5726846266368302e+00 5.2203943994370468e+00 1.4595386468577514e+01 0 0 0
578 2 9.6238599290597104e-01 4.5624848475345638e+00 1.4230792033270708e+01 0 0 0
579 2 2.2885113699227615e+00 4.6583219337043955e+00 1.4954794385700879e+01 0 0 0
580 1 -2.9929422155412109e+00 2.1061904516686507e+00 1.4466993709572810e+01 0 0 0
581 2 -2.5893065975887515e+00 1.5487053698246567e+00 1.3742229219965541e+01 0 0 0
582 2 -2.2528860265988064e+00 2.7505854168641157e+00 1.4771634339696993e+01 0 0 0
827 2 1.0158448384390686e+01 7.7027123579086174e+00 1.1467615552321321e+01 0 0 0
98 2 1.3848581879879038e+01 5.5897675137397496e+00 1.0649324490576094e+01 0 0 0
589 1 1.2112827712456220e+01 1.1534411292345004e+00 1.4403436853861807e+01 0 0 0
590 2 1.1177311976401864e+01 8.3252851921053461e-01 1.4502176462868050e+01 0 0 0
591 2 1.2319070012586582e+01 1.8680589969482937e+00 1.5048027152620332e+01 0 0 0
592 1 9.4921342875375654e+00 9.5612647617126656e-01 1.4823480980169688e+01 0 0 0
105 2 3.2780627359250092e+00 1.9252629269547961e+00 1.8856168979887372e+01 0 0 0
594 2 9.2684778509600978e+00 1.7983211379313484e+00 1.4346615997193197e+01 0 0 0
595 1 4.9452822819182503e+00 6.2470399569921371e+00 1.4667522401093937e+01 0 0 0
596 2 4.8944912175667481e+00 5.7825917309219266e+00 1.5534329467688698e+01 0 0 0
597 2 4.9282095196364288e+00 5.5364727527425162e+00 1.3955786817841194e+01 0 0 0
598 1 7.7007712457669237e+00 6.5108989482613842e+00 1.4313984905352269e+01 0 0 0
599 2 6.7841552208459470e+00 6.5995651473394021e+00 1.4585255708253936e+01 0 0 0
600 2 7.6795031441045998e+00 6.1240750847062282e+00 1.3395726676221436e+01 0 0 0
520 1 1.9692450340253114e+00 5.0214326559280886e+00 9.8390369053173181e+00 0 0 0
603 2 1.0825797469489359e+01 4.9179928408111353e+00 1.8380238147405272e+01 0 0 0
656 2 2.4091842710539799e+00 1.4123614866017281e-01 1.7391440919424319e+01 0 1 0
605 2 1.1173476732659740e+01 5.3557183085798057e+00 1.0776320581726575e+01 0 0 0
524 2 -2.7870915300455517e+00 3.6007375892796172e+00 1.0398405217932554e+01 0 0 0
507 2 3.7866812048753467e+00 2.2985059795784535e-01 1.4734990571486961e+01 0 0 0
825 2 3.0720964328798139e+00 8.5570431598842998e+00 1.8170512227464762e+01 0 0 0
609 2 6.5207526791119692e+00 2.3819280191840035e+00 1.0718503393158121e+01 0 0 0
510 2 1.4335932156717046e+00 6.8916002354676476e-01 1.4350370685797539e+01 0 0 0
611 2 6.3429540223058138e+00 2.1703830499773824e+00 1.7973184625414639e+01 0 0 0
613 1 1.0345985931653894e+01 6.2294278230387095e+00 1.7050488464532414e+01 0 0 0
614 2 1.0927054220655140e+01 6.9616906507234670e+00 1.6979242301581664e+01 0 0 0
615 2 9.4260145567472478e+00 6.5766912631174304e+00 1.7118143795356232e+01 0 0 0