LAMMPS data file via write_data, version 3 Mar 2020, timestep = 1000000

1008 atoms
2 atom types

2.2254535379103224e-01 1.8177009646203107e+01 xlo xhi
5.7740180935681451e-03 2.2564614981904867e+01 ylo yhi
1.7284081536478801e-01 1.9332875184627728e+01 zlo zhi
6.1912101722647120e-03 -6.6939052565342720e+00 1.9362743339519550e-02 xy xz yz

Masses

1 16
2 2

Atoms # atomic

1 1 6.4787991393107607e+00 8.3120776047876210e-01 4.6122238659301846e+00 0 0 0
399 2 7.8962174694569471e+00 1.1570348466103011e-01 1.0955313573115875e+00 0 0 0
3 2 6.8080977810570120e+00 1.3100509380405805e+00 3.7990834569357128e+00 0 0 0
4 1 3.8110867750857400e+00 1.3138686798275483e+00 4.9066393418440084e+00 0 0 0
5 2 4.7449076097256615e+00 1.1096816416985715e+00 4.8824581244035397e+00 0 0 0
6 2 3.7050631903254736e+00 1.6259445400034021e+00 5.8174557455274263e+00 0 0 0
7 1 -7.2667591919545016e-01 6.3708290555824592e+00 4.9168075887664981e+00 0 0 0
8 2 -5.5596103477719949e-01 6.0999711811573150e+00 5.8443453306638533e+00 0 0 0
9 2 -1.3595682002860112e+00 7.1520982620491376e+00 4.9421452008786959e+00 0 0 0
10 1 1.9570947832958987e+00 6.4281145545005769e+00 4.5976792152869894e+00 0 0 0
11 2 9.6894266937625928e-01 6.6230682371015481e+00 4.7201010135070893e+00 0 0 0
12 2 2.4345143167499419e+00 7.2360905759783316e+00 4.7019833063057730e+00 0 0 0
17 2 5.2212303664585997e+00 4.2569264976870453e+00 2.9150428023088470e-01 0 0 0
302 2 1.5214114691920331e+01 1.0548808173142010e+01 6.9624435289948972e+00 0 0 0
100 1 1.4602270768891129e+01 4.6620938099109184e+00 3.0824004343154665e-01 0 0 0
106 1 9.6740315858811474e+00 2.7502367384828763e+00 9.5670250444622482e+00 0 0 0
18 2 5.6220524793595077e+00 5.4588917609611745e+00 1.2438627156383468e+00 0 0 0
671 2 8.4366104604845678e+00 5.4612048883956739e+00 8.9806030426909569e+00 0 0 0
219 2 5.8751604211077630e+00 1.0416905144778363e+01 7.2254363386394269e+00 0 0 0
21 2 1.1133599403712575e+00 2.3253891654942880e+00 1.2300515892677664e+00 0 0 0
135 2 1.5543974258095789e+01 2.4630942724237515e+00 6.0557710649006369e+00 0 0 0
290 2 1.5943600807398038e+01 1.0680207325764131e+01 2.4794468921746700e+00 0 0 0
152 2 7.6211961250754419e+00 6.3434582963985242e-01 7.5254077085790572e+00 0 0 0
25 1 4.5321910745577352e+00 6.4051440357241054e+00 7.3059858569304135e+00 0 0 0
26 2 5.2178346915233966e+00 6.9948056572183832e+00 7.5964335267782115e+00 0 0 0
27 2 3.5662193805695965e+00 6.5810728217708316e+00 7.6198476688522927e+00 0 0 0
28 1 5.6299597504641756e+00 6.5214965649585528e+00 2.4405890519536304e+00 0 0 0
29 2 5.5269849778731466e+00 6.3585408749249988e+00 3.3782753452557590e+00 0 0 0
30 2 4.8954508291760952e+00 7.0709739976786627e+00 2.1292843063927052e+00 0 0 0
31 1 1.1951907105747104e+00 1.2261510558759141e+00 2.7320060821261363e+00 0 0 0
32 2 2.1276361174574911e+00 8.9733001328562811e-01 2.5734719604694845e+00 0 0 0
33 2 1.1192685321610145e+00 1.4529349150269841e+00 3.6725500487506353e+00 0 0 0
34 1 1.7335092104791450e-02 8.6234460820983272e-01 7.3147573874911966e+00 0 0 0
166 1 1.1700334584487537e+01 6.0199843130874671e+00 4.6806373807966406e-01 0 0 1
36 2 2.2487208853263008e-01 1.4921925488788534e+00 8.0315208755241052e+00 0 0 0
37 1 6.5172062595481783e+00 2.4709127762187890e+00 2.6152417059832795e+00 0 0 0
38 2 5.6841391356024831e+00 2.9775929004196082e+00 2.6647103745737151e+00 0 0 0
39 2 7.2460346405807003e+00 3.1046224296661409e+00 2.8990283086927655e+00 0 0 0
40 1 3.9182983958892588e+00 2.7163519401759340e+00 7.6019898646934863e+00 0 0 0
41 2 4.8622816528138371e+00 2.9374359013637426e+00 7.4776964949319185e+00 0 0 0
42 2 3.3480958496185842e+00 3.4621816841504853e+00 7.1733031793349102e+00 0 0 0
43 1 -3.4363481992581146e-01 4.9350251078601071e+00 7.2855846559536257e+00 0 0 0
44 2 -8.6170638122190168e-01 4.0984132485759810e+00 7.3377373024053716e+00 0 0 0
45 2 -4.4456591140402457e-01 5.4253140491714618e+00 8.1906459593997010e+00 0 0 0
46 1 1.8112699302754138e+00 5.0000553832740504e+00 2.4610900676663165e+00 0 0 0
47 2 9.7298272783391104e-01 4.5326793213616181e+00 2.7069364107749485e+00 0 0 0
48 2 2.0132962033961439e+00 5.7229166222618897e+00 3.1468203556153531e+00 0 0 0
49 1 6.4439950602755705e+00 3.3484561189041333e+00 6.5685674045425930e+00 0 0 0
50 2 5.9425272352871357e+00 3.8513443485633405e+00 5.8470485959813239e+00 0 0 0
51 2 6.8371687715995275e+00 2.5802373748314302e+00 6.0889978837425973e+00 0 0 0
52 1 4.2036719667315232e+00 3.4735816218349611e+00 3.3925969923978441e+00 0 0 0
53 2 3.3906632376643855e+00 3.8488131385317947e+00 2.9719421206573671e+00 0 0 0
54 2 3.9488714045228885e+00 2.7121338993978057e+00 3.8963684843095834e+00 0 0 0
55 1 -5.4678548166974195e-01 3.8731673818888388e+00 3.6769227869276513e+00 0 0 0
56 2 -7.6111597049077839e-01 4.7692297614025252e+00 4.0365058879769240e+00 0 0 0
57 2 -1.1409729370343902e-01 3.3948495636169738e+00 4.4061047401060431e+00 0 0 0
58 1 2.1083810181102240e+00 4.3270702136411465e+00 6.5638639631482789e+00 0 0 0
59 2 2.2281211050947611e+00 5.0690536419655077e+00 5.8908358653075563e+00 0 0 0
60 2 1.2477064668817031e+00 4.5273426424842285e+00 7.0248088529201667e+00 0 0 0
61 1 8.1856972239836789e+00 7.4711901150717255e+00 1.4947302751273994e+00 0 0 0
62 2 7.3350655796442528e+00 7.0404205684076917e+00 1.8194264195183685e+00 0 0 0
63 2 8.4872667092031389e+00 6.6731388685576896e+00 9.7939383661592305e-01 0 0 0
64 1 2.2555185739203858e+00 7.0760771091166124e+00 8.4282273092629740e+00 0 0 0
65 2 1.5747753964461402e+00 7.6569956369350631e+00 8.0588989362496779e+00 0 0 0
66 2 2.8711524026886890e+00 7.7036594387728208e+00 9.0192347087558122e+00 0 0 0
224 2 6.5622832246579499e-02 1.1143587840243432e+01 3.9404147981595887e+00 0 0 0
68 2 -2.6219679276804833e+00 1.3197017034171499e+00 8.6173661245357938e+00 0 0 0
311 2 1.0562747193495973e+01 1.1120835065396854e+01 6.1007003095680483e+00 0 0 0
72 2 4.1173042386582583e+00 1.2432760327858117e+00 1.5713684447366727e+00 0 0 0
73 1 5.3678439111824421e+00 5.3658575484387674e+00 4.9749329311692430e+00 0 0 0
74 2 4.9026480849002274e+00 5.7968796822385427e+00 5.7697725090974741e+00 0 0 0
75 2 4.6699530591569136e+00 4.9596789491934761e+00 4.4659213471130403e+00 0 0 0
76 1 8.6115612802292540e-01 2.2517803681679229e+00 5.3087756397587924e+00 0 0 0
77 2 4.8868769946412272e-01 1.6134091823494661e+00 5.9711742295109094e+00 0 0 0
78 2 1.5398117606888018e+00 2.7902384128016613e+00 5.7292139241174542e+00 0 0 0
156 2 1.1724176310455517e+01 5.0617201834849623e-01 2.3559101492055321e+00 0 0 0
20 2 3.6651283458094019e-01 3.3238105002898766e+00 3.3298362913348745e-01 0 0 0
165 2 1.6538852984010028e+01 6.9030346490245353e-01 5.1588048565451228e-01 0 0 0
85 1 1.5369325711414046e+01 9.1381543465081816e-01 5.0417391668079103e+00 0 0 0
87 2 1.5334216175222730e+01 1.3407382015822260e+00 4.1508641919254163e+00 0 0 0
88 1 1.2492656344580789e+01 1.1672527668414252e+00 5.0550517909958277e+00 0 0 0
89 2 1.2579457695030824e+01 2.0107303469663602e+00 4.5450676000790091e+00 0 0 0
90 2 1.3359600690827568e+01 7.4410011208988069e-01 4.9217932026739382e+00 0 0 0
91 1 8.3423217302160388e+00 6.6015943735013929e+00 5.4101393530819655e+00 0 0 0
92 2 8.1501650558125238e+00 6.2519267796571052e+00 4.5503591690239338e+00 0 0 0
93 2 9.2698102278014964e+00 6.9587438298887694e+00 5.2762063838770565e+00 0 0 0
94 1 1.1004014709437318e+01 6.8806267745460881e+00 4.9585937455219495e+00 0 0 0
95 2 1.1655553803708683e+01 7.6447750969924293e+00 5.0083748749059129e+00 0 0 0
96 2 1.1279694370879525e+01 6.2285680055424679e+00 5.6402649518207886e+00 0 0 0
84 2 3.1639809799892586e+00 6.7263299629744058e+00 2.2936559605146442e-01 0 0 0
145 1 1.7281044411909797e+01 6.8993663099350062e+00 1.9635672516761322e+00 0 0 0
486 2 1.1587292285164128e+01 1.0251862258088394e-01 9.1098599068591710e+00 0 0 0
101 2 1.4417220804325691e+01 5.2430895289972481e+00 1.0305486083311155e+00 0 0 0
668 2 1.2717172717650257e+01 1.8348573619949717e+00 9.2463783321945900e+00 0 0 0
79 1 7.0149519885509388e+00 1.1849103589379975e+00 4.1380462408273855e-01 0 0 1
220 1 3.9711482342992097e+00 1.0875149468908887e+01 3.3165406439550638e+00 0 0 0
16 1 5.8737598528190809e+00 5.0027062725301725e+00 3.7879808814079063e-01 0 0 0
109 1 1.3871703141783536e+01 6.5735421968355308e+00 7.3949627022959659e+00 0 0 0
110 2 1.3926724493222990e+01 5.9186216291921152e+00 8.1395282732411793e+00 0 0 0
111 2 1.2929895472372399e+01 6.9318769887865237e+00 7.5013467600388362e+00 0 0 0
112 1 1.4875313561044482e+01 6.3184432289408825e+00 2.9315968523283580e+00 0 0 0
113 2 1.4207836779021470e+01 7.0363571328716619e+00 2.7219490122820345e+00 0 0 0
114 2 1.5745758606713403e+01 6.5384894517001531e+00 2.7100952363203579e+00 0 0 0
115 1 9.8938781994800085e+00 1.3501076550502371e+00 2.7354026708320691e+00 0 0 0
116 2 9.8757169485593543e+00 1.8962542372955034e+00 1.8914028802128553e+00 0 0 0
35 2 -9.2868110793714997e-01 6.6132343146874484e-01 7.4552936828694714e+00 0 0 0
118 1 9.4197022220947897e+00 1.2571589969037738e+00 7.2158164390037358e+00 0 0 0
119 2 9.5241475789449481e+00 1.8834271609558992e+00 7.9681685694127502e+00 0 0 0
120 2 9.5043669839485467e+00 1.8373489466488513e+00 6.4324919350971603e+00 0 0 0
121 1 1.5308234757165593e+01 2.4635011430377847e+00 2.6772825291096005e+00 0 0 0
122 2 1.6121811945470284e+01 2.9778913930406334e+00 2.8585526698753809e+00 0 0 0
123 2 1.5441752837213933e+01 2.0970476790756858e+00 1.7458757094312864e+00 0 0 0
124 1 1.2985609203296208e+01 2.6440880196724792e+00 7.5435240289692116e+00 0 0 0
125 2 1.3926170928683804e+01 2.7996874811001788e+00 7.5430725024953462e+00 0 0 0
126 2 1.2896100543529601e+01 1.8985359358753926e+00 6.9497842991928200e+00 0 0 0
127 1 8.5180185639059367e+00 4.7525659642428426e+00 7.4502933564786993e+00 0 0 0
128 2 7.6889823014333709e+00 4.2357747212748684e+00 7.1647521766291415e+00 0 0 0
129 2 8.5786629898279578e+00 5.4466918448729515e+00 6.7544120951359705e+00 0 0 0
130 1 1.0776521309969400e+01 4.9912195449572518e+00 2.7753173014260453e+00 0 0 0
131 2 1.1467666563367191e+01 4.3308955039924060e+00 3.0590154204803075e+00 0 0 0
132 2 1.1035412139529589e+01 5.7287635332726099e+00 3.4298981807686668e+00 0 0 0
134 2 1.5049788127959681e+01 3.9671011239077312e+00 6.2684605499273545e+00 0 0 0
136 1 1.2788921836077710e+01 3.4679420340497162e+00 3.5536211679529255e+00 0 0 0
137 2 1.3245648304193834e+01 3.9478492811443484e+00 4.2993946783084569e+00 0 0 0
138 2 1.3514277071320603e+01 3.2249472658156044e+00 2.9941301499670927e+00 0 0 0
139 1 8.2856135298212337e+00 4.3750052171603508e+00 3.3252425525155838e+00 0 0 0
140 2 8.9497037692156063e+00 4.4618817091130509e+00 2.6327479580559681e+00 0 0 0
141 2 8.6884816783162631e+00 3.8077022898422226e+00 4.0051543834034291e+00 0 0 0
142 1 1.1176589917081298e+01 4.4413337229521428e+00 6.8408472293671192e+00 0 0 0
143 2 1.1865331984825872e+01 3.9344245982571948e+00 7.2235240106228105e+00 0 0 0
144 2 1.0307506678035478e+01 4.2789806201631002e+00 7.2559390149304610e+00 0 0 0
147 2 1.6957539086244353e+01 7.6586452543938019e+00 1.4231161099057392e+00 0 0 0
148 1 1.1210397767267999e+01 7.0751869113964938e+00 8.1381398602423225e+00 0 0 0
149 2 1.1205169006138386e+01 6.2523575304336729e+00 8.6798206851277868e+00 0 0 0
150 2 1.1399458472675972e+01 7.8221012362556905e+00 8.7937027539627657e+00 0 0 0
305 2 1.2145366150722712e+01 1.1240777693281888e+01 2.8806666291116327e+00 0 0 0
523 1 -2.1875001376508347e+00 2.8732096899671995e+00 9.6685166427574138e+00 0 0 0
153 2 6.8117233472183987e+00 1.3838034899659160e+00 8.6603376064780271e+00 0 0 0
217 1 6.5674301076187991e+00 1.0828346250646931e+01 6.6745164157305172e+00 0 0 0
155 2 1.2608223308325048e+01 1.0451581688513158e+00 1.2672087155043905e+00 0 0 0
221 2 4.7801017954034899e+00 1.0681173483243743e+01 2.7590375470345436e+00 0 0 0
157 1 1.4362907032567076e+01 5.0132333366807655e+00 5.2286402063899278e+00 0 0 0
158 2 1.4620697793219446e+01 5.6108481961837544e+00 4.4766765945103080e+00 0 0 0
159 2 1.4007162985731513e+01 5.5836733657178410e+00 5.9220313786863494e+00 0 0 0
160 1 9.6550975018648675e+00 2.6916330819712835e+00 4.8983313161946667e+00 0 0 0
161 2 1.0413854217911490e+01 3.2364490965036761e+00 5.2124294761066050e+00 0 0 0
162 2 9.8009836889374391e+00 2.1061792504876276e+00 4.0114625981531544e+00 0 0 0
167 2 1.1333225952464733e+01 5.5243539199451277e+00 1.2471161622136651e+00 0 0 0
117 2 9.2475742646541583e+00 6.4399835236426484e-01 2.5521955426005447e+00 0 0 0
248 2 7.5169718869762550e+00 8.6217384366755052e+00 3.5349988243034414e-01 0 0 0
169 1 6.3132026779247248e+00 8.7632116567919827e+00 4.9131896912559592e+00 0 0 0
170 2 6.8298461144187108e+00 8.0317707166102501e+00 5.2168469164375963e+00 0 0 0
171 2 6.4762502716625026e+00 9.4603038261310157e+00 5.6091127160141960e+00 0 0 0
172 1 3.6458981800476256e+00 8.7325795902285801e+00 4.8892530451992995e+00 0 0 0
173 2 3.6756102941137678e+00 9.4016472657368055e+00 4.1903853696166138e+00 0 0 0
174 2 4.5599368535963052e+00 8.4014186128634130e+00 4.9667779280112629e+00 0 0 0
133 1 1.5469902461635897e+01 3.1680487800122448e+00 6.7090135035792340e+00 0 0 0
151 1 6.8208579940353484e+00 5.0029060947926696e-01 8.1296385056743272e+00 0 0 0
146 2 1.7430271775442655e+01 6.2281145695149416e+00 1.2228770439789935e+00 0 0 0
192 2 7.3980962600496536e-01 9.8564748972906386e+00 8.8222867524473330e+00 0 0 0
199 1 1.3972603647992470e+00 8.6443455707674097e+00 2.6601081361948280e+00 0 0 0
200 2 9.6853040172765414e-01 9.2182942584047840e+00 1.9646587987736635e+00 0 0 0
201 2 7.9765538193225016e-01 7.8982612646847317e+00 2.6088544309095765e+00 0 0 0
202 1 2.1138970520878608e-01 8.6622262044753420e+00 7.4124637498581727e+00 0 0 0
203 2 -7.0341752947052383e-01 8.5504309232851359e+00 7.7719064779258780e+00 0 0 0
204 2 3.2590225827835617e-01 8.9814629974962727e+00 6.4756506773140527e+00 0 0 0
205 1 6.3273396023855071e+00 1.0089910402114430e+01 2.6256760864676099e+00 0 0 0
206 2 6.2898302482923167e+00 9.3736734419504053e+00 3.3037384986380789e+00 0 0 0
207 2 6.6073585863104345e+00 9.6976441747875874e+00 1.7476041951008063e+00 0 0 0
208 1 4.0806426931859967e+00 9.9484968384468591e+00 7.4400786316010992e+00 0 0 0
304 1 1.2816351785317940e+01 1.0783170826067014e+01 3.4293822070989659e+00 0 0 0
210 2 3.7378753914690281e+00 9.4115086672213373e+00 6.7104620460067190e+00 0 0 0
836 2 1.2884237545813690e+01 9.4091305282709197e+00 9.0047298540087208e+00 0 0 0
83 2 2.0478491494072770e+00 5.7090450282001299e+00 8.5495015963041632e-01 0 0 0
154 1 1.2438521973375272e+01 1.8613318452802904e-01 1.7053383526978441e+00 0 0 0
482 2 -2.2658854205648282e-02 2.0219120836253601e-01 2.1391681266705058e+00 0 0 0
517 1 8.6207189228720900e+00 4.9753181349321203e+00 2.3822349808909174e-01 0 0 1
235 1 -2.0996077261622221e+00 8.1508586456608132e+00 8.5678976728236425e+00 0 0 0
236 2 -2.3902677847778442e+00 9.0306945430110979e+00 8.9546860371157173e+00 0 0 0
238 1 3.8687562467886103e+00 8.0847897956729486e+00 1.5019836100376176e+00 0 0 0
239 2 3.1049586922914321e+00 8.4125709914324638e+00 2.0815145449263728e+00 0 0 0
240 2 4.2219606632690123e+00 8.8911493192799149e+00 1.0098294449997920e+00 0 0 0
244 1 7.5361699051566844e-01 9.9988349511295986e+00 4.8555628760339253e+00 0 0 0
245 2 1.2356701861001269e+00 9.4618566220864473e+00 4.2046866262971889e+00 0 0 0
246 2 1.3119345996888208e+00 1.0495395999460010e+01 5.4689733522567829e+00 0 0 0
67 1 -2.5665094263804047e+00 3.7798902074289858e-01 8.3581759821796542e+00 0 0 0
524 2 -2.7540423092239195e+00 3.6210775525279684e+00 9.6838568313153388e+00 0 0 0
253 1 1.5612222015555348e+01 8.7341262059551159e+00 4.8809108410334705e+00 0 0 0
255 2 1.5628822801361911e+01 8.9334285970251930e+00 3.9058924417248360e+00 0 0 0
256 1 1.2888611827211838e+01 8.8793838031721783e+00 5.3359082774129840e+00 0 0 0
257 2 1.3831486100585616e+01 8.4748962718213896e+00 5.3034574917789348e+00 0 0 0
258 2 1.2747956664648546e+01 9.4640992860452187e+00 4.4965220879342969e+00 0 0 0
19 1 1.0601025408266858e+00 2.6281241151054533e+00 2.7830882458197964e-01 0 0 0
272 2 9.9586107729232687e+00 9.8894706201186757e+00 7.3106489992545387e-01 0 0 0
521 2 1.9263834184283319e+00 5.2314403460478651e+00 9.5616460198763491e+00 0 0 0
276 2 9.3063562513720566e+00 9.9616157853828931e+00 8.9269450664652013e+00 0 0 0
283 1 1.0347836625570665e+01 8.9549207776047322e+00 2.4046029645831113e+00 0 0 0
284 2 1.0085988244997399e+01 9.1747592111750009e+00 3.2875834676480942e+00 0 0 0
285 2 9.6816293444503874e+00 8.3099945341800492e+00 2.1130853542509884e+00 0 0 0
286 1 9.1680732080545866e+00 8.7598254141951397e+00 7.5152576798272799e+00 0 0 0
287 2 9.7837298391387488e+00 7.9709244980981735e+00 7.5235346863333685e+00 0 0 0
288 2 8.3051504443462800e+00 8.3049126995577200e+00 7.4069094419662811e+00 0 0 0
289 1 1.5383733665439232e+01 9.8706625444522533e+00 2.4461726758567583e+00 0 0 0
586 1 -6.7481741304163556e-01 6.1828664618065430e+00 9.4736628120046191e+00 0 0 0
291 2 1.5639705913917444e+01 9.3198609357440994e+00 1.6066232140608552e+00 0 0 0
292 1 1.3351687555295401e+01 1.0282618665701802e+01 7.6591138623526520e+00 0 0 0
780 2 1.3023083638970565e+01 9.6334556112515681e+00 7.8499882667180676e-01 0 0 0
294 2 1.3140765664709381e+01 9.7333321537169262e+00 6.8872840992399507e+00 0 0 0
585 2 3.5261151010463418e+00 1.8857207827291544e+00 9.1669865804971575e+00 0 0 0
209 2 3.4265789142987662e+00 1.0623097339749851e+01 7.4751405059790823e+00 0 0 0
306 2 1.3474259758346522e+01 1.0456514022800821e+01 2.7705535560866745e+00 0 0 0
518 2 7.7016334226108851e+00 4.6975349300055260e+00 4.6842274939872536e-01 0 0 0
319 1 6.7380791512400053e+00 7.6603314905626521e+00 8.2471795016574294e+00 0 0 0
320 2 6.7470086248674388e+00 8.4453887966123791e+00 8.8154936101402281e+00 0 0 0
321 2 7.1642890304737890e+00 7.0003982046738500e+00 8.8924587938519579e+00 0 0 0
322 1 1.2798819972319276e+01 8.0444333869469329e+00 1.9388419007199666e+00 0 0 0
323 2 1.1951753451408633e+01 8.4557952143756356e+00 2.2043998107142864e+00 0 0 0
324 2 1.2463054847899942e+01 7.3865796598333420e+00 1.3709647906298814e+00 0 0 0
328 1 9.5458203589452371e+00 9.8390373957332713e+00 4.8979952119354708e+00 0 0 0
329 2 9.0035372464255321e+00 9.3226557363116189e+00 5.5572313007398924e+00 0 0 0
330 2 8.9340527889260120e+00 1.0512718145054766e+01 4.6047250377822841e+00 0 0 0
237 2 1.5114842064958321e+01 7.7276015375492628e+00 7.9419589357912521e+00 0 0 0
99 2 1.3171543492427700e+01 4.6323851789360697e+00 9.5632580635038291e+00 0 0 0
80 2 6.5461072341693898e+00 1.6830355884634789e+00 1.1155116100431428e+00 0 0 0
254 2 1.5984845451011035e+01 9.5444037666921542e+00 5.3036268701407732e+00 0 0 0
612 2 1.1925173314932371e+01 2.7622079032178779e+00 2.8557122681282043e-01 0 0 0
584 2 2.6193454021894591e+00 7.5921971521132237e-01 9.6798542773465375e+00 0 0 0
14 2 5.1257505056407959e+00 5.1813310329509426e+00 8.5334550311224504e+00 0 0 0
70 1 3.6399780271989179e+00 4.3895975168668594e-01 1.9247742046602727e+00 0 0 0
485 2 1.0436042364324688e+01 1.4803446054673344e-01 8.0462899977480919e+00 0 0 0
835 1 1.2504870070044758e+01 8.8634668837887318e+00 9.7395682462581625e+00 0 0 0
610 1 1.2837934804842854e+01 2.4687499767038954e+00 2.8174502649904698e-01 0 0 1
301 1 1.5943020831476266e+01 1.0848339651282110e+01 6.4352681590593726e+00 0 0 0
753 2 4.1219268488557113e+00 9.3332064613921730e+00 9.0234988702008767e+00 0 0 0
86 2 1.5835055791774861e+01 8.7099101047127883e-02 4.9144267715265011e+00 0 0 0
97 1 1.4101854916985332e+01 4.9169422893544832e+00 9.4452215627303122e+00 0 0 0
587 2 -1.3886065038463518e+00 6.8328231929471643e+00 9.2949317964112677e+00 0 0 0
293 2 1.2694826184442318e+01 1.0986594911379777e+01 7.5965363378764783e+00 0 0 0
189 2 1.7549538168720304e+00 1.0599924543647314e+01 5.3009314605789459e-01 0 0 0
187 1 8.3226579692699676e-01 1.0295676518269412e+01 4.6028876957810511e-01 0 0 0
15 2 4.2070019095486222e+00 4.4694116590183421e+00 9.5193454002456122e+00 0 0 0
2 2 7.0965821285779960e+00 1.0154666491146710e-01 4.7756570685114239e+00 0 0 0
22 1 5.8286854769295449e-01 2.4977171034733323e+00 9.6455449559125448e+00 0 0 0
103 1 1.0034689812353967e+01 2.5826667929523470e+00 4.2005355031255820e-01 0 0 0
190 1 5.8787624874023292e-01 1.0275792982591689e+01 9.6310994513339079e+00 0 0 0
108 2 8.7492884392583434e+00 2.9011209619649732e+00 9.7319208806733659e+00 0 0 0
13 1 5.1532733752967310e+00 4.7012079689015120e+00 9.3598732745819468e+00 0 0 0
102 2 1.3948968860809444e+01 3.9820658089464320e+00 3.2286449437449305e-01 0 0 0
602 2 1.6494191946303395e+01 4.7054817483597748e+00 1.8725618586184303e-01 0 0 0
777 2 6.1646453861953994e+00 1.0663468404983361e+01 9.6876354503768720e+00 0 0 0
621 2 7.9021338218190467e+00 8.7612194467540205e-01 1.2164773686775231e+01 0 0 0
81 2 -2.4736120710322140e-01 5.4078269177423910e-01 1.9170186487338661e+01 0 0 0
906 2 -1.8173814391859713e+00 1.5036977196032769e-01 1.7588959828247106e+01 0 0 0
805 1 1.2573851403105257e+01 1.0767639405911474e+01 1.5787597040596010e+01 0 0 0
692 2 -2.9144136883023499e+00 1.1262842889996476e+01 9.8074241348210514e+00 0 0 0
837 2 1.2277640803937306e+01 9.4481313705941101e+00 1.0538635464221212e+01 0 0 0
809 2 1.0257938425288218e+01 1.0439339106448990e+01 1.2443149686708088e+01 0 0 0
808 1 9.4616072956735113e+00 1.0807188190394077e+01 1.2955335384742909e+01 0 0 0
658 1 9.3294120528808531e+00 4.3483770730319260e-01 1.1390460344955958e+01 0 0 0
509 2 -1.3495072834581734e-02 5.3630287939442067e-01 1.4500226387152274e+01 0 0 0
669 2 1.2341572948428936e+01 2.0031465837520837e+00 1.0743514298703603e+01 0 0 0
728 2 -3.5791686399922589e+00 1.1141380489862915e+01 1.3076911726295817e+01 0 0 0
588 2 -9.1772571910236111e-01 5.7220927656434410e+00 1.0314134103097368e+01 0 0 0
659 2 1.0151491157652790e+01 4.8455391705731314e-02 1.1758199365344510e+01 0 1 0
834 2 5.8915210504614421e+00 1.0742191060244888e+01 1.4135292179764994e+01 0 0 0
607 1 6.7981624988525446e+00 2.5586184301884045e+00 9.9719539425918491e+00 0 0 0
98 2 1.4140540702593798e+01 5.5711638739032647e+00 1.0196137651094331e+01 0 0 0
815 2 8.5364113523414904e+00 1.1285478982527092e+01 1.6624313530985347e+01 0 0 0
505 1 3.0081261565386734e+00 1.1407244808903114e+00 1.4680685393999202e+01 0 0 0
506 2 3.4570216972252057e+00 1.8634441996592854e+00 1.5179464244213209e+01 0 0 0
247 1 5.7533233339993828e-02 9.1133073215413241e+00 1.9147678048739913e+01 0 0 -1
508 1 3.6742812786102252e-01 1.4111400153434062e+00 1.4664841069055823e+01 0 0 0
721 1 3.4048684188683254e+00 1.0967856928156642e+01 1.6098280950525442e+01 0 0 0
510 2 1.3056509138093606e+00 1.1934306080733950e+00 1.4667320825265156e+01 0 0 0
511 1 -4.0976508043584152e+00 6.6169421498555598e+00 1.4597834929228251e+01 0 0 0
512 2 -4.2193848069101891e+00 5.9646474977926047e+00 1.3839956183305851e+01 0 0 0
513 2 -4.0577693836261410e+00 6.0057723038449300e+00 1.5340023518937738e+01 0 0 0
514 1 -1.3721121912387724e+00 6.6507910983982681e+00 1.4308038416601971e+01 0 0 0
515 2 -1.1676248239824201e+00 5.8283280929457275e+00 1.4810327073828233e+01 0 0 0
516 2 -2.3593949481595056e+00 6.7849676013337064e+00 1.4496543003196964e+01 0 0 0
816 2 7.6061167553724713e+00 1.1079311825479740e+01 1.5441626040118768e+01 0 0 0
519 2 1.8482721844229175e+00 5.3739734926381217e+00 1.8503504477228205e+01 0 0 0
249 2 4.8848045659776407e-01 9.5818253416038424e+00 1.8457038512369472e+01 0 0 0
522 2 2.3896579979727082e+00 4.9225511827959760e+00 1.0859247327386756e+01 0 0 0
775 1 6.6580598219237199e+00 9.8616219184530785e+00 9.9365339294933115e+00 0 0 0
833 2 6.8613838154013598e+00 9.4377102046138575e+00 1.4169141755237588e+01 0 0 0
525 2 -2.1566605393606819e+00 2.4216912160215425e+00 1.0603781119928064e+01 0 0 0
670 1 8.2539934844007838e+00 5.9610903585763877e+00 9.8309423189664944e+00 0 0 0
527 2 -2.8067829695550341e+00 2.0818214227987069e+00 1.8216553657957490e+01 0 0 0
529 1 1.3017537262098049e+00 6.5365043934212697e+00 1.6901562884662930e+01 0 0 0
530 2 1.3972688605918044e+00 6.1167422397277198e+00 1.6015023990442629e+01 0 0 0
531 2 3.2959831004717000e-01 6.7264417992110737e+00 1.7155351538874733e+01 0 0 0
532 1 2.7198668576087464e+00 6.3421639362822990e+00 1.1878451771565938e+01 0 0 0
533 2 3.6479822557657831e+00 6.5116905593916501e+00 1.1614595550407756e+01 0 0 0
534 2 2.6843397008414813e+00 6.0553282655834266e+00 1.2816572629044805e+01 0 0 0
535 1 -2.0950358612117843e+00 1.5382455452628581e+00 1.1924797230514553e+01 0 0 0
608 2 6.2492179269041888e+00 3.3638336629570520e+00 9.8579132706758088e+00 0 0 0
537 2 -1.1804139420538262e+00 1.1528128201495635e+00 1.2024615119780300e+01 0 0 0
538 1 -2.9433644538091879e+00 1.1374149324242400e+00 1.6863716351155460e+01 0 0 0
539 2 -3.8714649289485390e+00 9.1801279905949529e-01 1.7032729721819379e+01 0 0 0
540 2 -2.7999010478048216e+00 1.5371166132267637e+00 1.5977700299479366e+01 0 0 0
541 1 2.6476794472316829e+00 2.6742672020926719e+00 1.2243999790276128e+01 0 0 0
542 2 2.6401195819232974e+00 1.9305690878031141e+00 1.2922000109225946e+01 0 0 0
543 2 2.8269803611997308e+00 2.2317799637562827e+00 1.1377671341396985e+01 0 0 0
544 1 7.3101768150416735e-01 2.4684662900117162e+00 1.7062968596509826e+01 0 0 0
545 2 6.1174637972298473e-01 2.0639834482931669e+00 1.7933591876729366e+01 0 0 0
546 2 4.3274788257984564e-01 1.9651564254867553e+00 1.6278402925506121e+01 0 0 0
547 1 -3.5885128397598094e+00 5.0884723094751054e+00 1.6853002954381807e+01 0 0 0
548 2 -4.0187251930642454e+00 4.2670049535862571e+00 1.6686602629943415e+01 0 0 0
549 2 -3.8639079814153385e+00 5.3746003690961848e+00 1.7731297704436216e+01 0 0 0
550 1 -1.5455434856695538e+00 5.2199109198837768e+00 1.1881403114210555e+01 0 0 0
551 2 -8.6403889194740158e-01 4.5419936971652506e+00 1.2032316179639773e+01 0 0 0
552 2 -1.4755037217474243e+00 5.7417261473686532e+00 1.2660046720861500e+01 0 0 0
553 1 3.0069225769589965e+00 3.6492914608074001e+00 1.5792472137257937e+01 0 0 0
554 2 2.4604456975032249e+00 3.2923285777051721e+00 1.6473080268381324e+01 0 0 0
555 2 3.8126409767040466e+00 3.9794674561590226e+00 1.6309902041540830e+01 0 0 0
556 1 1.9580675235510370e-01 3.5966543713776873e+00 1.2845452415268964e+01 0 0 0
557 2 1.1341985878136116e+00 3.5381199697579486e+00 1.2559343273618714e+01 0 0 0
558 2 7.6215875972750702e-02 2.8477168282311953e+00 1.3473295672276915e+01 0 0 0
559 1 -3.8420818977426450e+00 4.2868302232126902e+00 1.2840355878338064e+01 0 0 0
560 2 -3.1271127774134633e+00 4.6729302338946832e+00 1.2257766217960183e+01 0 0 0
561 2 -3.2978032670269499e+00 3.7466914660600064e+00 1.3476503618426818e+01 0 0 0
562 1 -8.9137233692140416e-01 4.3750173779351096e+00 1.6030194431275433e+01 0 0 0
563 2 -2.8120287184799597e-01 3.8217812385609835e+00 1.6564139782676719e+01 0 0 0
564 2 -1.5814010912736967e+00 4.7288683865428673e+00 1.6590593910896388e+01 0 0 0
565 1 5.4223179852013601e+00 7.0103849232912170e+00 1.1078839526837363e+01 0 0 0
566 2 4.9650213350589478e+00 7.6023657137779201e+00 1.0458799820457292e+01 0 0 0
567 2 5.5479798930651274e+00 6.1791892575614593e+00 1.0579316182424387e+01 0 0 0
568 1 -1.2177797610085648e+00 7.2527534076021345e+00 1.7742014942199560e+01 0 0 0
569 2 -1.2207067280057204e+00 6.5248708162407727e+00 1.8425324826216055e+01 0 0 0
570 2 -7.6247255872779984e-01 8.0109700777645951e+00 1.8244783258010386e+01 0 0 0
164 2 8.5452458685355808e+00 9.9847721995244809e-01 1.8896276933219454e+01 0 0 0
572 2 -5.7364321795267781e+00 1.2665739314666247e+00 1.8300179731051784e+01 0 0 0
105 2 2.9186583509425583e+00 1.9441652756262902e+00 1.8954431048593769e+01 0 0 0
694 1 -3.0577028958873771e+00 1.0570821918376970e+01 1.9164255886197616e+01 0 0 0
576 2 7.3413022666568395e-01 1.1064488173439788e+00 1.0677386782236100e+01 0 0 0
577 1 1.6843243587358341e+00 5.5619065884364316e+00 1.4372214315408069e+01 0 0 0
578 2 9.1867393138176912e-01 5.0033534828767898e+00 1.4142753365569504e+01 0 0 0
579 2 2.2662931258130925e+00 4.9210464520384214e+00 1.4832893379540726e+01 0 0 0
580 1 -2.5202557663200658e+00 2.6782493188344745e+00 1.4458215132615884e+01 0 0 0
581 2 -2.3115590095901744e+00 2.1623583018943364e+00 1.3668808196775975e+01 0 0 0
582 2 -1.7999864573848465e+00 3.2375521219687200e+00 1.4832241390444851e+01 0 0 0
667 1 1.2244049297202938e+01 1.3590168613123403e+00 1.0015244256986458e+01 0 0 0
620 2 6.4126396932960743e+00 5.4834946436193088e-01 1.1779941605953951e+01 0 0 0
589 1 1.2267532533931545e+01 8.7584618600413355e-01 1.4425202906850568e+01 0 0 0
590 2 1.1444757234055796e+01 5.2613779989003018e-01 1.4792293740187274e+01 0 0 0
591 2 1.2396849942792068e+01 1.6737752442656120e+00 1.5000273083051422e+01 0 0 0
592 1 9.3521233609889247e+00 1.5199780867740522e+00 1.5090194789665537e+01 0 0 0
751 1 3.9059634142736530e+00 8.7381372936685082e+00 9.7919602130712420e+00 0 0 0
594 2 9.3706906396484086e+00 2.1729689070603366e+00 1.4393167188599371e+01 0 0 0
595 1 5.0642777099094163e+00 6.3025566341574315e+00 1.4752712180808539e+01 0 0 0
596 2 4.8199098848611550e+00 5.7472386614448618e+00 1.5553911084773034e+01 0 0 0
597 2 5.0237169578684346e+00 5.7038330207009595e+00 1.3996069275590282e+01 0 0 0
598 1 7.5756354028706188e+00 6.6283040969247216e+00 1.4843347465939704e+01 0 0 0
599 2 6.6319266804983945e+00 6.6599401128994860e+00 1.4589082148522461e+01 0 0 0
600 2 8.0193506477980279e+00 6.1405974240687407e+00 1.4128477780079940e+01 0 0 0
163 1 9.2908264947666801e+00 1.4420484147379382e+00 1.9308277647108142e+01 0 0 -1
603 2 1.0749864550225405e+01 5.0878539374362104e+00 1.8289468805867507e+01 0 0 0
828 2 8.7611339218725028e+00 8.1126732893276614e+00 1.1826249789017158e+01 0 0 0
605 2 1.1458846870212835e+01 5.3536142290400601e+00 1.0775760080324961e+01 0 0 0
107 2 9.9490350664398033e+00 2.1972159632159212e+00 1.0283980951034687e+01 0 0 0
571 1 -5.4980664135129809e+00 4.4933719796316740e-01 1.7824982357607894e+01 0 0 0
188 2 -5.8623086986065278e+00 9.5429155447892970e+00 1.8934413734904943e+01 0 0 0
609 2 7.0359501077932025e+00 2.4293798084222646e+00 1.0904584930244784e+01 0 0 0
794 2 1.2590326718694074e+01 1.0852852585276048e+01 1.2265453519054343e+01 0 0 0
611 2 6.2323857622039025e+00 2.0702687405424554e+00 1.8565664539815103e+01 0 0 0