LAMMPS data file via write_data, version 3 Mar 2020, timestep = 0

2016 atoms
2 atom types

0.0000000000000000e+00 1.7949396800303074e+01 xlo xhi
-1.5947590493198902e+00 4.6590919026238424e+01 ylo yhi
0.0000000000000000e+00 1.9089638391605256e+01 zlo zhi
4.4806947091375240e-02 -6.6684026218275321e+00 -2.1353315629873748e-02 xy xz yz

Masses

1 16
2 2

Atoms # atomic

579 2 5.2870446136537952e+00 9.1581689271538558e+00 1.4127753008778376e+01 0 0 0
223 1 -7.7791154911191196e-01 3.4119232835718698e+00 1.4636507774497316e+01 -2 0 -2
710 2 6.1490296882321651e+00 9.5997941069673178e+00 1.6380195017822412e+01 -3 0 -2
654 2 1.5534831337817945e+01 7.9860977241687152e+00 5.5405685047656075e+00 -2 0 0
394 1 1.0316292908040918e+01 3.9142889667256693e+00 4.9442959804410833e+00 -3 0 -3
578 2 3.8856316179486683e+00 9.0001257562676962e+00 1.3422548420727500e+01 0 0 0
929 2 1.3828261208313247e+01 4.7719320086283217e+00 5.4293920058384311e+00 0 0 0
513 2 7.7206038159275669e+00 -9.9009940802420759e-01 1.5313513116903437e+01 1 0 0
705 2 3.0679452309969184e+00 7.8896955632263541e+00 1.4939645091000136e+01 -2 0 -1
302 2 1.0380777865020782e+01 4.3597778072702713e+00 1.5469547195469152e-01 0 0 0
299 2 1.1701690591062031e+01 1.4107387209842179e+00 1.7288540435589091e+01 -3 0 -2
896 2 8.5001033353671911e+00 5.0242996394051165e+00 1.4961181135965857e+01 -1 0 -1
150 2 1.9436759258994840e-01 5.8861094022716305e+00 1.2879106871371262e+01 -3 0 -1
406 1 4.4045464490041315e+00 7.6302043579505359e+00 6.2733014027411151e+00 -2 0 -2
761 2 9.0921626656246897e+00 -1.2110598412742053e+00 1.4827967913284310e-01 -3 0 2
596 2 5.4458160124268662e-01 7.2875897753948671e+00 1.4275618228837683e+00 3 0 -2
635 2 5.8925278201802485e+00 9.8309438082819618e+00 1.2064358821636516e+01 1 0 -2
926 2 -4.2354606460674260e+00 -1.2492756926483710e+00 1.2779761988370582e+01 2 0 2
881 2 1.4501377914939269e+01 2.7101341787542133e+00 8.0502538535237740e+00 -3 0 2
319 1 1.0654996063870453e+01 -7.1801288937359364e-01 1.4230375755340939e+01 -4 0 -3
991 1 1.2998353813420584e+01 -1.2500254289440687e+00 1.0028277773325339e+01 1 0 1
234 2 1.3898370309678098e+01 8.4631393754820436e+00 1.0026585193541882e+01 -2 0 0
609 2 5.3862038889621084e+00 3.1707537962003283e+00 2.6934892069662562e+00 -3 0 0
1583 2 -5.1794945192395119e+00 1.0366541251789672e+00 1.5616254892779326e+01 0 1 1
122 2 1.1830424302898823e+01 6.4085816627403105e+00 1.6182411511346587e+01 -2 0 -1
184 1 -1.3149688365416194e+00 -1.1881553762369563e+00 1.9054046175013113e+01 -4 0 -7
407 2 4.3102754315902345e+00 8.4886243749501933e+00 6.7109105968724778e+00 -2 0 -2
707 2 1.0478402169368057e+00 6.5800989515150530e+00 6.9744260787447461e+00 -1 0 -1
972 2 7.8622392991795849e+00 5.0118636507985705e+00 1.4118076795503265e-01 0 0 1
448 1 9.6199210761761815e+00 7.2564869305205004e+00 1.1925635018158946e+01 -1 0 1
244 1 -2.4305788266026878e+00 5.1529630252403651e+00 1.5911489214779683e+01 -3 0 -4
762 2 8.7635644790563472e+00 3.4603013155538953e-01 4.3085871926517938e-01 -3 0 2
687 2 7.7268448909470644e-01 4.0587471910101991e-01 9.0195626166881180e+00 -3 0 0
889 1 1.0749868786466690e+01 -1.5090990720599107e+00 6.5570097064677935e+00 -1 0 0
354 2 1.1153212309093128e+01 7.6587833678918376e+00 1.4412331871995729e+01 -1 0 0
301 1 9.6645832252352122e+00 4.9449179466677959e+00 5.5520229580338398e-01 0 0 0
149 2 -7.9659596838141544e-01 5.3651796618374572e+00 1.1926924903203908e+01 -3 0 -1
131 2 1.0579311131430909e+01 1.0380332925270416e+01 1.5615560824242040e+01 -1 0 0
839 2 -5.6360950182278788e+00 9.3145585340912369e+00 1.7639137927134218e+01 0 0 -3
449 2 1.0220062528680879e+01 7.6837107546903631e+00 1.2562615889757257e+01 -1 0 1
524 2 2.4056349844968459e+00 1.1547497959916631e-01 1.0901459782567471e+01 -2 0 -4
186 2 6.2064449319796182e+00 -9.0773638802207646e-01 2.3962930092456064e-01 -4 0 -5
523 1 2.4050428404449233e+00 6.7613823417533370e-01 1.0125631026350607e+01 -2 0 -4
658 1 6.1175845527251438e+00 2.2318399035146630e+00 1.4549771854228087e+01 -1 0 -2
206 2 5.1555456069869168e+00 2.0146258661948728e+00 1.2744301166859849e+01 3 0 0
96 2 1.5197793920449323e+01 7.5984130259239109e+00 7.7720927076177464e+00 -2 0 -1
441 2 5.4180007585641015e+00 6.8741404424022647e+00 9.3306683063547844e+00 -2 0 -1
151 1 6.7031856776003513e+00 6.5468435243064071e-01 3.7871853240434934e+00 3 0 0
781 1 -6.2559055262599657e+00 4.7532309629082388e+00 1.8864350717603781e+01 -2 0 -3
880 1 1.3720514683058784e+01 2.3705284265210089e+00 7.5603046715988098e+00 -3 0 2
626 2 8.9708863088295629e+00 2.8628464850766830e+00 2.7697408963290149e-01 0 0 0
232 1 -3.1250309652781456e+00 8.3631814526157289e+00 1.0310860652901507e+01 -1 0 0
703 1 2.6051790534708417e+00 8.2720257968021773e+00 1.4220853231848514e+01 -2 0 -1
382 1 1.5701439649800522e+01 8.8185298119196158e+00 1.7749400268146467e+00 -2 0 1
21 2 8.6430860251412529e+00 8.1169082150978813e+00 3.7106036893204246e+00 -3 0 -3
978 2 5.5396850501691661e+00 -1.2326652736837240e+00 1.6500971861082046e+01 -3 0 -1
54 2 4.9273169969082149e+00 1.3959911220302761e+00 1.9058343645990895e+01 2 0 -1
737 2 1.4489331320237310e+01 9.8724330955312780e+00 7.6979207362266191e+00 -1 0 1
689 2 1.8357314352442504e+00 4.2635234781514351e+00 3.4613728851268277e+00 -2 0 0
714 2 -1.6610830411441202e+00 -2.9703886089263554e-02 1.1471291101479231e+01 0 0 3
233 2 -2.8722668269427691e+00 9.3205883736429449e+00 1.0503234925871730e+01 -1 0 0
652 1 1.5914303732134472e+01 7.7347752711174635e+00 4.6252035382397549e+00 -2 0 0
506 2 1.1827505203170938e+01 7.1369542114230953e+00 7.3754358844120533e+00 -4 0 -2
356 2 1.9211373026503091e+00 6.5111649580477327e+00 1.4272875918106484e+01 -4 0 -3
477 2 5.3697751959917674e+00 4.6006166780520648e+00 9.4472400467737128e+00 -1 0 2
500 2 -1.6787351333317524e-01 2.7620698549067466e+00 1.3091101370899068e+01 1 0 0
840 2 -5.9172226097593921e+00 1.0219019575498294e+01 1.8935231874517413e+01 0 0 -3
547 1 -3.2826657232016432e+00 7.6927620354172603e+00 1.4861253774068548e+01 -2 0 -4
789 2 5.6232295171769087e+00 7.4326510208377048e+00 2.7728085260572302e+00 -2 0 0
810 2 8.3119188599273528e+00 2.6618858685332798e+00 6.7803746964505098e+00 -4 0 -1
930 2 1.3411105788258082e+01 3.8259771152528010e+00 6.5569550471915141e+00 0 0 0
702 2 3.5720666541057060e+00 7.1681837936850235e-01 1.6415349719024473e+01 -3 0 -3
501 2 -3.7781505370288704e-01 1.6247899965369847e+00 1.1949840008938070e+01 1 0 0
625 1 8.5402947357944345e+00 2.1565107086686335e+00 7.3822556825949681e-01 0 0 0
775 1 1.0870817362297261e+01 -4.0171784247710440e-01 2.3078510364959355e+00 -2 0 2
101 2 3.3344519357188207e+00 6.4255055825409038e+00 1.0232824252495076e+01 -1 0 -1
384 2 1.5743502808496061e+01 8.3069964787558401e+00 2.6147618889014415e+00 -2 0 1
670 1 1.6067212496576864e+00 -1.4637222953577980e+00 6.4516479223456260e+00 -3 0 -1
622 1 -3.9293596088422409e+00 3.8752571606565978e+00 1.7645649017560181e+01 -2 0 -2
624 2 -4.3037044807917146e+00 2.9968235763896800e+00 1.7640793356239431e+01 -2 0 -2
179 2 1.0724352367393760e+01 5.1757688477782713e+00 3.8678798463806197e+00 -3 0 0
621 2 -4.3620882020842728e+00 7.2884712998739669e+00 1.7523330204965088e+01 -3 0 -1
838 1 1.1585369003100288e+01 9.6762757288526000e+00 1.8187004447744670e+01 -1 0 -3
776 2 1.1399360184081342e+01 -9.3464568389236502e-01 2.9314980024293762e+00 -2 0 2
619 1 -5.0860544837496935e+00 7.4999259162728578e+00 1.6870626220575499e+01 -3 0 -1
600 2 -2.1489189656834773e-01 1.5475243135034673e+00 7.5354428800621793e+00 -3 0 1
49 1 1.2851144237433308e+01 -2.0247864008338179e-01 7.5335180219991091e+00 -1 0 0
183 2 1.2563730228949726e+01 5.9152180601716067e+00 1.1565414800641786e+01 -1 0 0
391 1 1.2893342811613606e+00 9.7716519786965161e+00 6.9660815402331320e+00 -1 0 -1
977 2 4.5468137586712265e+00 -6.9420517303227636e-01 1.7661025177262818e+01 -3 0 -1
559 1 8.1018858705635690e+00 -1.2166739996593399e+00 7.5132929920541525e+00 -2 0 1
993 2 1.3114315601630452e+01 -1.0078142898748035e+00 9.0543907429669748e+00 1 0 1
135 2 2.0473869323640295e+00 4.1577721948491702e+00 1.0673990990554552e+01 1 0 -1
320 2 9.9584649402871239e+00 -1.2816725609392976e+00 1.3852088187406411e+01 -4 0 -3
697 1 3.9332814829068639e+00 7.1246758169704592e+00 1.6151771251750482e+01 2 0 3
598 1 -1.2165602095971328e-01 2.4746279074945630e+00 7.5654048783328651e+00 -3 0 1
120 2 7.0646433209332127e+00 6.1943875454589303e+00 3.8121453817858546e+00 -2 0 -2
277 1 8.4901222663286759e+00 1.0083787494738216e+01 7.6594535697884156e+00 -4 0 -1
640 1 -1.7724964456489021e+00 6.5516084809481825e+00 8.7134714034180281e+00 4 0 -1
753 2 2.1876043424744207e-01 6.0232473765618746e+00 1.7254457140813795e+01 0 0 2
527 2 3.8919773428490867e+00 -1.2658646299193888e-01 5.0500874416977499e+00 -2 0 0
119 2 5.7119212953603533e+00 5.3727264760427058e+00 3.5106225991013855e+00 -2 0 -2
525 2 2.3401869701377138e+00 1.5842744202653969e+00 1.0440349067643577e+01 -2 0 -4
270 2 2.5239957802896562e-01 9.6874195542170956e+00 1.5668950015399689e+01 2 0 -1
971 2 -4.1027850620517547e-01 4.7158089413503665e+00 1.9012992650262831e+01 0 0 0
890 2 9.8909206944212524e+00 -1.3937806176444334e+00 7.0301011551058554e+00 -1 0 0
212 2 9.5749644369484450e+00 4.0366678705059575e+00 8.2515673891079970e+00 -5 0 -2
701 2 2.8784694187983559e+00 2.1115859007317597e+00 1.6173394424389567e+01 -3 0 -3
505 1 1.2454661689683457e+01 7.0388998261593123e+00 6.6407780301306927e+00 -4 0 -2
470 2 1.6407150023216921e+01 2.2624839694312904e+00 4.6118244858693586e-01 -7 0 -2
471 2 1.6807513940829612e+01 7.2884648193137069e-01 4.4520963554942994e-01 -6 0 -2
708 2 8.8114057037512206e-01 7.9815057289461997e+00 7.5083234033999329e+00 -1 0 -1
764 2 -3.9250759308508294e+00 1.0133238745588327e+01 1.3238976734432498e+01 -3 0 -3
46 1 1.2204983941067212e+01 8.6524348903524775e+00 9.6976113567965303e+00 -3 0 0
844 1 6.8725240557047105e+00 -9.6423869261585660e-01 1.2448803635123578e+01 1 0 1
723 2 9.8452715696388875e+00 9.8033167985221432e+00 8.5871486533717189e-03 -5 0 -2
627 2 8.9568802159243752e+00 2.2076909643908000e+00 1.6507273436457328e+00 0 0 0
111 2 9.1279606745767339e-01 2.4600943347127147e-01 1.7926422949775560e+01 1 0 -4
869 2 -1.9088900634400656e+00 4.5708929241778922e+00 8.7759699527907848e+00 2 0 0
16 1 2.7764455883267161e+00 3.8126336753281951e+00 1.3786521549411313e+01 0 0 1
178 1 1.0912271154072716e+01 5.7548310503964260e+00 3.0572041585018219e+00 -3 0 0
974 2 9.8546012992152541e+00 3.9999754446376490e-01 1.5831115716936289e+01 -4 0 -2
118 1 6.0837202952872520e+00 6.2939356909942203e+00 3.7704813203259504e+00 -2 0 -2
230 2 2.2919626936734820e+00 1.4663532986745698e-01 3.8349819646121057e+00 0 0 -2
623 2 -4.7289731500034806e+00 4.3741351968282345e+00 1.7944072157185289e+01 -2 0 -2
1668 2 6.1980505440438218e+00 3.2376882445022197e+00 1.4697299168255778e+01 -1 1 -2
644 2 -3.9949626758715926e+00 1.1139482134937819e+00 1.1834154654472782e+01 -3 0 -3
321 2 1.1525393543441467e+01 -1.1108875755955789e+00 1.3873991982324151e+01 -4 0 -3
276 2 1.2900948205628122e+01 -3.3977574567053770e-01 2.4101785922000685e-01 2 0 0
239 2 5.3208248168687700e+00 5.7660210428508618e+00 1.3722904745868687e+01 0 0 0
716 2 5.2111878054143315e+00 1.8830871687373762e+00 7.7319353532164425e-01 1 0 2
717 2 6.7635732630624466e+00 2.2207954950086566e+00 1.0499540404966805e+00 1 0 2
240 2 5.4987175615673749e+00 7.2206005678961418e+00 1.3187838127651013e+01 0 0 0
904 1 2.7987821441908389e+00 7.4356663098579023e+00 1.8430205251229761e+01 -3 0 1
17 2 2.1639963152681281e+00 4.5345841687939830e+00 1.4084113071473860e+01 0 0 1
788 2 4.8099953339372519e+00 8.0170748912069136e+00 1.7002337124201354e+00 -2 0 0
254 2 1.1240110507429740e+01 8.1029965896004246e+00 1.8773300622719958e+01 -3 0 -3
645 2 1.3908152871831785e+01 -2.4008112740670229e-01 1.0965578766212175e+01 -4 0 -3
613 1 -2.6303148315712490e+00 1.1075739719151723e+00 1.8645520800123307e+01 -2 0 -1
246 2 -2.7566897922979825e+00 6.0127143939022423e+00 1.5609188817025505e+01 -3 0 -4
238 1 5.4649038412818749e+00 6.2842912703402147e+00 1.2900698876287526e+01 0 0 0
531 2 8.0474906600643141e+00 -1.1858040289892369e+00 1.9162082187532266e+00 -1 0 0
715 1 5.8983348764546024e+00 2.0276621668880601e+00 1.4723958924626104e+00 1 0 2
115 1 1.5919820557793751e+00 5.7019825316342292e+00 1.0085264932598761e+01 -4 0 -5
426 2 2.0758222560874318e-01 4.0863481259841929e+00 4.5963116268050079e+00 -1 0 1
923 2 3.1904623730160075e+00 8.7737087478102769e+00 1.0745466015638824e+01 -3 0 -3
905 2 2.7562022573882965e+00 6.5773294684859813e+00 1.8923442932316306e+01 -3 0 1
250 1 8.0304616029732134e+00 8.8024281956166739e+00 1.0110532307555113e+01 -3 0 2
933 2 -3.2595529620449395e+00 1.2325586285217596e+00 1.5396429294743511e+01 -2 0 -1
548 2 -3.4986637420398727e+00 7.3760736219438758e+00 1.3949480348693902e+01 -2 0 -4
868 1 -2.1112666463149052e+00 3.6228404404656205e+00 8.8918691444002871e+00 2 0 0
992 2 1.2014102281122812e+01 -1.0961208188333167e+00 1.0246190737881582e+01 1 0 1
18 2 2.7323575137079787e+00 3.6808190193929278e+00 1.2814808181272594e+01 0 0 1
85 1 9.5568005073663400e+00 -9.2239533271194452e-01 1.8886133858795429e+01 1 0 -3
504 2 4.7746151518080513e+00 -1.0135994452879249e-01 8.0102587790522630e+00 0 0 -1
785 2 9.8465209000687437e-01 1.7015228879900373e+00 7.4587923354864383e-01 -3 0 -2
870 2 -2.2419730062956891e+00 3.5152009291864088e+00 9.8553125253746483e+00 2 0 0
211 1 9.8913143268266879e+00 4.4709496727338616e+00 9.0715413181262541e+00 -5 0 -2
387 2 2.2864660536601757e+00 1.9905170910798375e+00 3.8913338478813611e+00 0 0 -2
522 2 7.7839370805482337e+00 -9.8447859574405083e-01 1.0749619346183747e+01 -5 0 -2
643 1 -3.4882456105617612e+00 3.0501033279176348e-01 1.1613292619684763e+01 -3 0 -3
185 2 -1.2457300339285409e+00 -1.3675436838956774e+00 1.8061081970907772e+01 -4 0 -7
1584 2 8.5837599620941401e+00 9.0758742333615139e+00 1.4136309460264492e+01 0 0 0
278 2 8.2310622054142168e+00 9.2993343685144261e+00 7.0844347129043461e+00 -4 0 -1
116 2 1.1763525455021551e+00 6.0376358125299783e+00 9.2548318257131079e+00 -4 0 -5
224 2 6.8429380064292999e-02 3.6566000870458160e+00 1.5197175633591810e+01 -2 0 -2
845 2 7.3109497561333772e+00 -3.0574345736034125e-01 1.3077318582460437e+01 1 0 1
66 2 6.3527501353367235e+00 5.3002718537411537e+00 5.8348839845746427e+00 -2 0 -3
117 2 9.5510056206677607e-01 5.8847934272208802e+00 1.0756315555861079e+01 -4 0 -5
931 1 -2.3310571960172748e+00 1.0651310392397200e+00 1.5724301762928203e+01 -2 0 -1
429 2 7.6287243991010545e-01 8.7628862737594631e+00 1.2522213866610707e+01 0 0 -1
385 1 2.4586663984141630e+00 2.7956369286635132e+00 3.3364045350996401e+00 0 0 -2
826 1 -2.5667160623600505e+00 9.8588467970139497e+00 1.8209568692846798e+01 1 0 0
961 1 1.1532990427454406e+00 -5.4502081446565853e-01 1.5081395054202080e+01 -3 0 -1
42 2 1.0149381492809963e+01 6.0879565739618737e+00 8.9408167513203818e+00 -2 0 3
726 2 -1.5905604349903997e+00 3.7501468340221473e+00 1.1875281620513134e+01 2 0 1
876 2 -3.3287486136426052e+00 5.7249247869244249e+00 1.2146231152678576e+01 -2 0 1
769 1 1.1564149198922422e+01 3.5684134963099954e+00 1.4112486924929613e+01 0 0 -3
1002 2 1.0968865926981881e+01 2.2156034235045157e+00 2.6685114100652836e+00 -1 0 1
549 2 -2.5359721246754190e+00 8.3119205953997977e+00 1.4707484168505381e+01 -2 0 -4
768 2 1.0212588372029114e+01 1.0091989921858241e+01 7.5350551851265646e+00 -4 0 -1
41 2 9.6281361864103232e+00 7.3834026641118324e+00 8.2836140501889517e+00 -2 0 3
575 2 9.0992937928253248e+00 8.0552727027668212e+00 1.5104293880947310e+01 0 0 0
812 2 1.0349681101635912e+01 2.5109470006949568e+00 1.3397300460041041e+01 -2 0 -1
932 2 -1.6908977453466414e+00 1.7014059704974533e+00 1.5433789911424899e+01 -2 0 -1
747 2 -1.1391083951739405e+00 9.5627467361611433e+00 1.3094579085243574e+01 -2 0 0
213 2 9.3863376494923827e+00 4.2761598646719596e+00 9.8589158220393944e+00 -5 0 -2
828 2 -3.1217029866783781e+00 9.1805985625854447e+00 1.8598800944177697e+01 1 0 0
296 2 1.0839460980116877e+00 8.0053268988491162e+00 3.8352205413452034e+00 2 0 3
338 2 4.4295660979901310e+00 4.4852651426604870e+00 1.3803404115466933e+00 -1 0 -1
938 2 1.2431584791978374e+01 7.8478425504202960e+00 4.9328187070129879e+00 1 0 1
969 2 2.9952699595425933e+00 6.6593193559412409e+00 6.0447591732096022e+00 -1 0 1
545 2 2.8171700787874983e+00 1.7804929626390882e+00 1.3795115764762231e+01 2 0 1
386 2 2.2517195121238571e+00 2.4230062856410859e+00 2.4247755309361891e+00 0 0 -2
937 1 1.2691348445129440e+01 7.8572239497291498e+00 3.9891192021084394e+00 1 0 2
40 1 1.0426609119635188e+01 6.9675005155035663e+00 8.7102284096398783e+00 -2 0 3
786 2 2.4734978405956185e+00 1.5405452012989000e+00 3.1455855749451472e-01 -3 0 -2
222 2 3.6604999509023450e-01 9.2834825330227986e+00 1.7633238345020796e+01 -2 0 -3
724 1 -2.4277471077069510e+00 4.2479898721488984e+00 1.1681627386251703e+01 2 0 1
784 1 1.9082709901824242e+00 1.8621165869774736e+00 1.0416520206365678e+00 -3 0 -2
967 1 2.3237341419376598e+00 5.9462644504393811e+00 5.9902123264710658e+00 -1 0 1
553 1 8.0710466754710239e+00 2.3720226276296121e+00 1.6849733088815203e+01 -5 0 -2
681 2 5.5090943265441936e+00 3.8618521502139158e+00 1.8084551481680180e+01 -3 0 -3
649 1 7.5445858451519570e+00 1.1758258846155529e+00 6.4048715822360425e+00 -4 0 0
650 2 6.6903818515640676e+00 1.2982745863681555e+00 6.8991107303472123e+00 -4 0 0
51 2 1.3054998704968053e+01 7.6214530423747906e-01 7.4567579597683480e+00 -1 0 0
36 2 -9.2622688231374350e-01 2.0232585408049841e+00 4.0145530770493147e+00 -1 0 0
945 2 5.4085348332374412e+00 1.9682697753940777e+00 8.7769217382020592e+00 0 0 3
673 1 3.3609107101706686e+00 7.3075802554732778e+00 3.9484283876114501e-01 0 0 -3
939 2 1.2413644454305867e+01 8.7151283803743134e+00 3.6130830774037017e+00 1 0 1
397 1 1.4990276854511228e+01 5.3234232999873496e+00 4.7650811673366533e+00 2 0 0
127 1 1.3843501723063682e+01 5.0421728817347917e+00 2.2256282064300144e+00 -2 0 -1
128 2 1.3609178239071992e+01 5.8606122142377561e+00 1.7853175947876654e+00 -2 0 -1
1407 2 1.5321256574249329e+01 6.1899763618931498e+00 4.8947712654613973e+00 2 0 0
34 1 1.6489374926359300e+01 1.5468082180099709e+00 3.3508127052348402e+00 -2 0 0
928 1 1.2984104070064348e+01 4.4885882033023963e+00 6.0135917813892634e+00 0 0 0
777 2 1.0255455647815863e+01 1.0052360554609940e-01 2.8737779730938198e+00 -2 0 2
152 2 6.3384486296419258e+00 1.0120056091893481e+00 2.9324487899652105e+00 3 0 0
439 1 6.2290388934050185e+00 6.6513439110931749e+00 8.8258305763167151e+00 -2 0 -2
350 2 1.2747566515268526e+01 3.4633788716589908e+00 2.3005344951841034e+00 2 0 4
843 2 -1.8742668065848340e+00 -7.0546202461041463e-01 1.6142534901688947e+01 -5 0 -5
176 2 3.6929351749460668e+00 -5.9610618206478860e-01 1.2923954029055194e+01 -5 0 1
783 2 1.7697902851613609e+01 4.1327637125262422e+00 3.4092240895512313e-02 -3 0 -2
148 1 -1.5392487732449389e-01 6.0697640762261802e+00 1.2015317545976037e+01 -3 0 -1
53 2 1.1296249265622730e+01 1.3275156887405815e-01 9.2394206931399114e-01 2 0 0
725 2 -3.1477595159634149e+00 3.6222677066093381e+00 1.1796715070569450e+01 2 0 1
459 2 -1.4461723367254486e-02 -1.3154132915966334e+00 2.6963541654067926e+00 -2 0 -2
129 2 1.3978606437042760e+01 5.2829469353723777e+00 3.1712149200918711e+00 -2 0 -1
503 2 3.8292367230429680e+00 -2.6859586313146289e-01 9.1186800788201232e+00 0 0 0
173 2 1.1288356049108906e+01 1.5163801593706743e+00 9.8116580083725289e+00 -1 0 -2
1664 2 6.5236566161330103e+00 5.7382532681605092e+00 1.8250934997296735e+01 -3 1 -1
279 2 8.3857589414241396e+00 9.7137690002268311e+00 8.6125816264081045e+00 -4 0 -1
589 1 3.8266440529220791e+00 9.8230074468807906e+00 7.9052954356717748e+00 -4 0 -1
462 2 7.6565238832261819e+00 3.0707075642169483e+00 1.1110371327580788e+01 -4 0 -2
651 2 7.2991761386223484e+00 1.0447151189403949e+00 5.4540196474887859e+00 -5 0 0
511 1 7.2445822737438466e+00 -1.5671872510619433e+00 1.5963394744798576e+01 1 0 0
611 2 1.2643856270394885e+01 3.1929324609604057e+00 1.2580308671486520e+01 -1 0 2
144 2 1.3109377495222693e+01 1.0129478088663065e+01 1.4345692215161256e+00 2 0 0
750 2 1.1690151500856928e+01 7.0052117947498118e+00 1.8349150601310563e-01 -3 0 2
749 2 1.2984493019145752e+01 7.8318177051343341e+00 4.2494957477562006e-01 -3 0 2
102 2 4.4254564059641286e+00 6.6693272520610645e+00 1.1251314359974280e+01 -1 0 -1
497 2 7.4018011542108706e+00 8.2084629917660346e-01 1.0328548592432332e+01 0 0 1
498 2 6.0223836348262445e+00 1.3817094319290093e+00 1.0810243088435726e+01 0 0 1
395 2 1.1194430264867627e+01 3.7447359525349420e+00 5.3768947066223820e+00 -3 0 -3
829 1 5.1418935881184886e+00 9.9073635259919524e+00 4.6035178012699332e+00 -3 0 0
349 1 1.2500595306928869e+01 2.5698697922337761e+00 2.0703774052365214e+00 2 0 4
679 1 4.7142186717834411e+00 3.2539327707209198e+00 1.8265211087897928e+01 -3 0 -3
398 2 1.5843407160656035e+01 4.8324981614278189e+00 4.7444252693542452e+00 2 0 0
540 2 1.9043852157020731e+00 -4.0640674418275191e-01 1.4063457154384151e+00 -4 0 -3
830 2 5.3287884720974326e+00 9.5587647440758055e+00 3.7517027347020266e+00 -3 0 0
251 2 7.4188681043351590e+00 9.3451611916353752e+00 1.0589626348910150e+01 -3 0 1
943 1 5.2563813587665855e+00 1.7513842132043087e+00 7.7993107984772232e+00 0 0 3
457 1 -8.7896548064112556e-01 -1.5028272656882777e+00 3.0892347450802458e+00 -2 0 -2
949 1 -4.8873972154782157e+00 -1.2414296280560506e+00 1.8415416474747598e+01 -1 0 1
220 1 -3.6819989105557127e-01 9.0174861387238394e+00 1.7100576506547480e+01 -2 0 -3
172 1 1.1635335583822995e+01 2.3557489416808743e+00 9.5366989520312107e+00 -1 0 -2
298 1 -5.2616797426863595e+00 1.3231066546735391e+00 1.7316488716528799e+01 -2 0 -2
680 2 4.3667737182807915e+00 3.0105599490057333e+00 1.7417041684773420e+01 -3 0 -3
634 1 6.5064468367822110e+00 1.0254642752672030e+01 1.1529315388675025e+01 1 0 -2
291 2 9.9562806675350295e+00 1.0004580962634563e+01 5.3073445420167467e+00 0 0 3
944 2 4.3446116042673797e+00 1.9942545042004061e+00 7.5837990055176148e+00 0 0 3
100 1 3.9106706715130728e+00 7.0936858120937547e+00 1.0621029044196238e+01 -1 0 -1
1667 2 5.2989996954947003e+00 2.0171546256511386e+00 1.5045621719680806e+01 -1 1 -2
352 1 1.1097942067794566e+01 8.5004019902204249e+00 1.3973714823721666e+01 -1 0 0
174 2 1.1028849387495043e+01 3.1363471522002859e+00 9.4850437795517184e+00 -1 0 -2
388 1 1.4292821125506814e+01 5.2113745784194965e-01 2.9174366633229449e+00 -1 0 0
779 2 7.7902385638411999e+00 9.7736466025710289e+00 1.1101432727971936e+00 1 0 0
672 2 1.0276387338747384e+00 -1.0052539609230995e+00 7.1067352923985707e+00 -3 0 -1
460 1 8.4695349985308876e+00 3.5662419632756759e+00 1.1273073909839152e+01 -4 0 -2
607 1 4.9452607045922550e+00 3.9294863463718448e+00 3.0605320331391734e+00 -3 0 0
699 2 4.6976939602499037e+00 7.7427375898397806e+00 1.6194534074349985e+01 2 0 3
231 2 2.0422480908391125e+00 -2.5714115476936938e-01 5.4101898856188537e+00 0 0 -2
65 2 6.5047136070398697e+00 5.7461992973317519e+00 7.3509753758633130e+00 -2 0 -3
595 1 1.3224971734745303e+00 7.3615334106482422e+00 2.1107683965580049e+00 3 0 -2
528 2 5.3650836507348059e+00 -9.3040092535982444e-02 4.5052146414958845e+00 -2 0 -1
109 1 2.8645442384877029e-01 6.9254262008139778e-01 1.7307544943167386e+01 1 0 -4
615 2 -2.4077633074354328e+00 1.1583873064178332e+00 1.7703955908045582e+01 -2 0 -1
745 1 -1.9034647595979068e+00 9.9948577948401063e+00 1.3594924568217992e+01 -2 0 0
461 2 8.2460734173296348e+00 4.2128313881267854e+00 1.1978823841399942e+01 -4 0 -2
599 2 -6.9228866489820851e-01 2.7897313854856920e+00 8.2735912296167875e+00 -3 0 1
408 2 5.0217089549866936e+00 7.8386783319023881e+00 5.5982373696844903e+00 -2 0 -2
20 2 9.5025818477436061e+00 6.7298919399874819e+00 3.5018657844748939e+00 -3 0 -3
182 2 1.1629491199597242e+01 5.5584361429954585e+00 1.0349641034977363e+01 -1 0 0
35 2 1.6855045215963425e+01 1.8081404217615940e+00 2.5022781950630182e+00 -2 0 0
289 1 9.3147170711921810e+00 9.9713713136975901e+00 4.5769141535996125e+00 0 0 3
428 2 -4.2634383561132072e-01 7.9474969210865947e+00 1.1907179690961987e+01 0 0 -1
475 1 4.5376438709302480e+00 4.0816181352005785e+00 9.5265711209806980e+00 -1 0 2
68 2 4.7565270921073681e+00 5.3583854032118170e+00 1.5938207272975582e+01 -4 0 -3
526 1 4.7187424524392778e+00 -6.7341949288756187e-01 4.9984199042122341e+00 -2 0 0
133 1 2.1962856922368403e+00 3.2974090138298715e+00 1.1118582465409952e+01 1 0 -1
610 1 1.3201311655708079e+01 2.7967828594387241e+00 1.1873239055823465e+01 -1 0 2
675 2 2.5704928805167291e+00 7.1801860918983369e+00 1.0050758057850977e+00 0 0 -3
766 1 1.1168078750964227e+01 1.0007520918114189e+01 7.1947395746445029e+00 -4 0 -1
300 2 -5.1638803121419521e+00 4.5455837174614588e-01 1.7712961678699600e+01 -2 0 -2
760 1 8.3907089834621331e+00 -5.3096211035240426e-01 2.2399020197210290e-01 -3 0 2
782 2 1.1199936192462378e+01 5.5517335662081768e+00 1.8948311420051759e+01 -3 0 -3
690 2 1.8106358774122844e+00 5.5222384592591398e+00 4.6166014290171464e+00 -2 0 0
561 2 7.9136289965478639e+00 -4.3082604460650331e-01 6.9455834107658072e+00 -2 0 1
728 2 7.1010114936732061e+00 5.6483851140094563e+00 1.3131796500964565e+01 0 0 1
113 2 9.0284622905450753e+00 9.4578530019366580e-01 1.3813679827611177e+01 -2 0 -1
48 2 1.1735686904534134e+01 9.2901804380355397e+00 1.0350162529366223e+01 -3 0 0
229 1 2.3404370523138391e+00 4.2360523062914845e-01 4.7709089942686944e+00 0 0 -2
962 2 5.9115806186682551e-01 -1.1242087950224655e+00 1.4497152500439007e+01 -3 0 -1
253 1 1.7508375555313123e+01 7.3637604338051013e+00 1.2399468423651301e-01 -3 0 -2
67 1 5.0196308168026595e+00 4.7576780583421581e+00 1.5145713910340451e+01 -4 0 -3
727 1 8.0236119045125243e+00 5.3754759792248787e+00 1.3323371685201952e+01 0 0 1
114 2 7.6668803594179442e+00 1.3440279849118046e+00 1.4400941843009353e+01 -2 0 -1
425 2 -2.0396199081545063e-01 3.4081252983725090e+00 5.9217618417521747e+00 -1 0 1
544 1 2.7895750097121539e+00 9.5492375979807287e-01 1.3342320818003616e+01 2 0 1
875 2 -3.4195612557364092e+00 7.1752745723852840e+00 1.1523153660898487e+01 -2 0 1
1001 2 9.8046811259935094e+00 2.7286396241154902e+00 3.5878452392939972e+00 -1 0 1
496 1 6.8200076758539687e+00 1.5506358517245955e+00 1.0267585583241576e+01 0 0 1
655 1 6.5879145623353130e+00 4.9533851698508533e+00 1.7715047573520295e+01 -3 0 -1
337 1 4.3165436499218224e+00 4.6808160787157913e+00 3.7972518719631854e-01 -1 0 -1
255 2 1.6697339160031046e+01 7.7200997617788669e+00 5.9064653525733479e-01 -3 0 -2
221 2 -1.0891484707429022e-01 8.1283446330441258e+00 1.6794113550734888e+01 -2 0 -3
963 2 1.8259173830424054e+00 -1.1468278439049464e+00 1.5511764576589899e+01 -3 0 -1
275 2 1.3738463898629750e+01 -6.7263326818163127e-01 1.5275972359216654e+00 2 0 0
392 2 1.3420560678415923e+00 9.3825542784970040e+00 6.0965183087878119e+00 -1 0 -1
641 2 -1.9471716097654559e+00 7.2079437145845482e+00 9.3940026462874275e+00 4 0 -1
110 2 5.2614299440867462e-01 3.1353692734035987e-01 1.6419031870950107e+01 1 0 -4
389 2 1.4337726902397394e+01 1.0724939030675995e-01 3.7808588332271174e+00 -1 0 0
47 2 1.1520515636064630e+01 7.9978749198883481e+00 9.3648601092360675e+00 -3 0 0
207 2 3.9116369475534061e+00 1.8265218036162683e+00 1.1854140641173428e+01 3 0 0
808 1 8.8232306184758826e+00 3.4991873506632336e+00 6.9334013777173684e+00 -4 0 -1
976 1 4.6305242690430308e+00 -9.7390387234861264e-01 1.6705464752396676e+01 -3 0 -1
577 1 4.8505502905766118e+00 9.2285965453658445e+00 1.3253123394667272e+01 0 0 0
19 1 8.6692573137210296e+00 7.1826415168609348e+00 3.8775479622994915e+00 -3 0 -3
1000 1 9.9708430673876904e+00 2.1119328137541662e+00 2.8719113226509028e+00 -1 0 1
294 2 2.0938385490700875e+00 3.2857781689555940e+00 7.3364349675363529e+00 1 0 -3
390 2 1.4933159402690316e+01 1.2415015880102733e+00 2.7429947525769744e+00 -1 0 0
827 2 -1.7430036611365303e+00 9.4221270641243109e+00 1.7906790275786026e+01 1 0 0
521 2 8.0472426972571078e+00 -8.9266824519291432e-01 9.2054234970158539e+00 -5 0 -2
813 2 9.2475128412955137e+00 2.4681694520356716e+00 1.2238624415395652e+01 -2 0 -1
458 2 1.6686745478565566e+01 -6.1014098344465406e-01 3.1636639469683021e+00 -3 0 -2
685 1 1.7752900649699566e-01 -9.0860325878287629e-02 8.3903187926318061e+00 -3 0 1
709 1 5.9515621960160319e+00 8.9248221001247821e+00 1.5653014288292459e+01 -3 0 -2
771 2 1.1460054579459534e+01 4.5051801229636848e+00 1.4422584018674016e+01 0 0 -3
778 1 7.6717229126043529e+00 8.8823017751275408e+00 7.8246202683104349e-01 1 0 0
809 2 8.1142841731074871e+00 4.2253726581308815e+00 6.9097438348093094e+00 -4 0 -1
866 2 1.0988798342754578e+00 3.5783289297008141e+00 1.7308442855001957e+01 -3 0 -1
94 1 1.4714059335351360e+01 8.1996658883431728e+00 7.1753107876543636e+00 -2 0 -1
225 2 -1.5715884431970251e+00 3.8964571791226073e+00 1.4949544477988720e+01 -2 0 -2
770 2 1.2084843922764740e+01 3.0324196377219552e+00 1.4767528565185463e+01 0 0 -3
123 2 1.0418011129921014e+01 5.6567805189902147e+00 1.5934162414628418e+01 -2 0 -1
440 2 6.8958415681167420e+00 7.2912607602368418e+00 9.1663048325218046e+00 -2 0 -2
383 2 1.4782258884482200e+01 8.9508665651664305e+00 1.4762019520614376e+00 -2 0 1
620 2 -4.5363879131040372e+00 7.7451860947814026e+00 1.6078728389371886e+01 -3 0 -1
499 1 -1.4891213824512040e-01 2.6052755240450765e+00 1.2110403487424803e+01 1 0 1
910 1 1.4344280352237135e+01 -9.9768978525911567e-01 5.4662147093108553e+00 -2 0 1
546 2 2.1550023149932294e+00 5.2217948767306366e-01 1.3950303481141672e+01 2 0 1
297 2 5.7196625388203826e-01 9.5106599573879222e+00 3.9365178340022871e+00 2 0 3
729 2 8.5308637620331034e+00 6.1166492538139128e+00 1.2882661580130897e+01 0 0 1
612 2 1.2552757549218319e+01 2.6841136889006627e+00 1.1098957237765854e+01 -1 0 1
674 2 3.8339303107318168e+00 6.4200820343232472e+00 4.6784525723488563e-01 0 0 -3
121 1 1.1139528856821581e+01 6.1623220171662325e+00 1.5502979674555696e+01 -2 0 -1
911 2 1.3754676063793552e+01 -5.8665746444857048e-01 6.1618919544888868e+00 -2 0 1
424 1 -5.0699502198957758e-01 3.6319387699181984e+00 5.0255626847327193e+00 -1 0 1
811 1 9.9021258850414604e+00 1.9055828467080373e+00 1.2756207115631394e+01 -2 0 -1