LAMMPS data file via write_data, version 3 Mar 2020, timestep = 18900000

2016 atoms
2 atom types

0.0000000000000000e+00 1.7949396800303074e+01 xlo xhi
-3.5334580860843872e+00 4.8529618063013359e+01 ylo yhi
0.0000000000000000e+00 1.9089638391605256e+01 zlo zhi
4.8412465935776014e-02 -6.6684026218275321e+00 -2.1353315629873748e-02 xy xz yz

Masses

1 16
2 2

Atoms # atomic

1560 2 4.7690872144100727e+00 1.3041426935490357e+00 1.3473569306800364e+01 1 0 1
707 2 -9.6637529766939290e-02 -8.5490102520334155e-01 2.1283387689236233e+00 1 0 0
700 1 1.2469547587858269e+01 -5.5882728320938568e-01 1.0448099793018727e+01 -4 0 -3
243 2 1.1137254640070537e+01 1.5941317694207902e+00 3.4486039727752908e+00 1 0 0
23 2 5.0141509170369387e+00 -1.3524027594661328e+00 9.6053337227694258e-01 -2 0 2
1934 2 1.1936478301447533e+01 1.5678810987048131e+00 1.2810363959195556e+01 0 1 0
1935 2 1.2525353101068120e+01 9.5202603728258062e-01 1.1461572181620195e+01 0 1 0
1487 2 8.5849787854262409e+00 1.6417149383557454e+00 2.9255950528218753e+00 0 1 0
1000 1 1.1684231688307312e+01 5.3894968753108792e+00 1.0058224711572093e+01 -2 0 2
835 1 5.0776901592950452e+00 -1.6300923362120550e+00 1.7304286873398887e+01 -1 0 -1
129 2 5.8302474024565338e+00 -2.7063883091954586e+00 1.6224032245966189e+01 -1 0 0
408 2 -2.1719377086837643e+00 -1.0468852727569860e+00 1.7589322303685712e+01 -2 0 -1
1029 2 1.3457978043405506e+01 3.9404975597836946e+00 7.6492037157656130e+00 0 0 0
491 2 1.6785630626649613e+01 -2.5632860084089004e+00 7.3982403592619228e-01 2 0 3
107 2 2.3094228289865599e+00 -1.0989074264980183e+00 1.9013993819953196e+01 -3 0 -3
1933 1 1.2212264970906194e+01 1.7976948753295314e+00 1.1867407768612464e+01 0 1 0
1486 1 8.5072622347182918e+00 2.2331800130098056e+00 2.1150512408128641e+00 0 1 0
905 2 1.0873744287047010e+01 -1.8662261088674563e+00 1.4102089102934254e+01 -4 0 1
904 1 1.1233007157952835e+01 -1.2947133324809093e+00 1.4864148275340199e+01 -4 0 1
900 2 -3.2079529088900154e+00 5.8359327674229355e-01 1.3097957141051186e+01 -1 0 3
1243 1 -1.0949650930921262e+00 9.1227848146153327e+00 1.3403745484770551e+01 0 0 0
735 2 1.5955934806775485e+00 9.3800826801896608e+00 1.5805262173357038e+01 -1 0 -1
720 2 1.6198520769656284e+01 9.0618695190608101e+00 3.4577988955032888e+00 -2 0 -4
1351 1 1.2155494440636071e+01 -2.9659971301062873e+00 1.6544889258040712e+01 -1 1 -1
1353 2 1.1727342454882542e+01 -2.5220552544940675e+00 1.5774551244662518e+01 -1 1 -1
569 2 8.4629539091211186e+00 2.9240184260533866e+00 1.8169037896833089e+01 -4 0 1
263 2 6.9476975884163261e+00 5.2704084370115645e-01 1.7537515870635005e+01 -1 0 0
303 2 7.2143871416526340e-02 2.9119071424860268e+00 1.9041756686044180e+00 1 0 -1
1027 1 1.3188425843513926e+01 3.0561783250366092e+00 7.8947340620403015e+00 0 0 0
1488 2 8.0218586174705635e+00 1.6800141060645339e+00 1.4669260486304756e+00 0 1 0
1961 2 4.7934089746570319e-02 -2.0770674854495299e+00 1.0525304579276515e+01 0 1 0
1028 2 1.2216900776520188e+01 2.9575699518440208e+00 7.6407683139302680e+00 0 0 0
22 1 5.0837281047760960e+00 -1.3809973791191803e+00 1.9147614316719346e+00 -2 0 2
1406 2 2.8152422156256627e+00 1.1730228171591168e+00 3.5596910820498513e+00 0 1 -1
1567 1 1.6046717067837420e+01 2.2375213373209988e+00 5.0818023028248422e+00 -1 0 0
1568 2 1.6043796692787271e+01 1.8090043189810032e+00 4.2250603734302485e+00 -1 0 0
1569 2 1.5612267091340893e+01 1.6417877387819022e+00 5.7019634846895872e+00 -1 0 0
738 2 -1.4825299718308460e+00 2.1646460118896176e+00 1.3060702627949738e+01 0 0 1
849 2 9.5654485858428107e+00 -4.5723634301027927e-01 9.1914284060238565e+00 0 0 -2
301 1 -2.2589414546282902e-01 2.1397462734366854e+00 1.3368744230396445e+00 1 0 -1
1405 1 2.8337592623007133e+00 1.7464377351049363e+00 4.4036670568243874e+00 0 1 -1
271 1 1.0255890503009661e+01 -2.8107561475551845e-01 1.7140274261467319e+01 -1 0 -3
1948 1 1.8309668996046367e+00 -3.1118342509444652e-01 8.1162999688335749e+00 0 1 1
848 2 8.5749375772393677e+00 -1.1435963365246944e+00 1.0319950146180661e+01 0 0 -2
302 2 5.1202869402166784e-02 1.3096806173134770e+00 1.8449465520989721e+00 1 0 -1
272 2 1.0480020078298491e+01 -6.5470295968162739e-01 1.6220165565505752e+01 -1 0 -3
399 2 3.1521900405228696e+00 1.1036460756469033e+00 5.1021079555141977e+00 0 0 -1
1409 2 9.2955263311412413e+00 8.2807171955176280e+00 1.3451330946013400e+00 -2 0 1
847 1 8.9505023092628413e+00 -1.2040313002647252e+00 9.3884112153668386e+00 0 0 -2
494 2 4.1957496864139578e+00 6.1166912791214045e-01 1.1105161573976147e+01 -4 0 -3
493 1 3.9737007978338146e+00 1.4938229927072229e+00 1.0845398378969453e+01 -4 0 -3
948 2 -3.4618113786123561e+00 7.4029014468966423e+00 1.2136659195561775e+01 -2 0 3
1586 2 7.3358305640273986e+00 3.6777739103782903e-01 1.1167315052993761e+01 -2 0 1
1585 1 7.2991186774803163e+00 -5.3678377167255276e-01 1.1599824004879130e+01 -2 0 1
961 1 1.1635573332917609e+01 -2.4689028394989530e+00 6.2589369633477343e+00 -4 0 0
899 2 -2.5244630164437369e+00 6.4366474910618976e-01 1.1689308638756195e+01 -1 0 3
1587 2 7.5185282534118061e+00 -2.6471965291481547e-01 1.2492155417260916e+01 -2 0 1
962 2 1.1491989648114272e+01 -1.5465220237766484e+00 5.9858926255855067e+00 -4 0 0
688 1 6.7620111994697716e+00 -1.5380835440041243e+00 4.0928245517805877e+00 -2 0 -1
1635 2 6.1184281828099270e+00 7.3560321176136156e+00 4.0374204516519443e+00 2 0 -1
125 2 1.3200697707223961e+01 6.8823720318632837e+00 3.1768610304432827e+00 -4 0 2
713 2 1.0586260094388393e+01 7.1510419352553551e+00 8.0850798299517841e+00 0 0 2
1558 1 3.8771218452157621e+00 1.0553016200185352e+00 1.3778279882033271e+01 1 0 1
1510 1 1.1249982883182094e+01 -1.9439818821447152e+00 3.2195147720894868e+00 0 1 0
1950 2 9.3952948437535166e-01 -2.3164192844420972e-01 7.6428772988759288e+00 0 1 1
984 2 1.3558040531573866e+01 1.8881910688977355e-01 3.4113218800608496e+00 -2 0 1
241 1 1.1268214426078659e+01 2.2571125365173508e+00 4.1381395299851276e+00 1 0 0
570 2 7.0539375752329523e+00 3.3527893611753425e+00 1.8720197690545085e+01 -4 0 1
568 1 7.6638724117397308e+00 3.5535864365988488e+00 1.7978632978280434e+01 -4 0 1
321 2 1.1509873830240908e+01 1.1881502934890138e+00 1.5809227209661019e+00 -3 0 -3
20 2 3.7359775521535621e-01 -8.4661944822957169e-01 1.7836444849628528e+01 0 0 -4
19 1 6.4463416588624867e-01 -1.4239255494005860e+00 1.8536794642756135e+01 0 0 -4
319 1 1.1019110125561934e+01 5.7273204191317628e-01 2.0886864999917369e+00 -3 0 -3
21 2 4.1173170589450514e-01 -2.3120143500757098e+00 1.8301399963361007e+01 0 0 -4
24 2 4.3374812497770838e+00 -8.6561394945961467e-01 2.2603780668173892e+00 -2 0 2
1512 2 1.0840384921795000e+01 -1.1779509820628467e+00 2.8425445792473534e+00 0 1 0
736 1 -8.2509674421221435e-01 2.8868631195812648e+00 1.3277078598100474e+01 0 0 1
1664 2 1.5601897941242379e+01 2.0763420991024919e+00 1.7234835803623547e+00 -2 1 2
722 2 8.3642921521844649e-01 3.6668426372908636e-01 1.3416233541872291e+01 -6 0 -3
737 2 -3.0262360562813839e-02 2.4109429959122703e+00 1.3051393480649269e+01 0 0 1
320 2 1.0463473336022082e+01 1.0243611806891417e-01 1.3890777521469653e+00 -3 0 -3
413 2 2.1709525939482810e+00 -2.2985736947306492e+00 4.4702940399472375e+00 0 0 -1
677 2 6.4340096394244446e+00 -1.1417489846463402e-01 6.3403209789748338e-01 -5 0 0
432 2 -4.2865277239222666e-01 5.2294286544787454e+00 7.4332387622159306e+00 1 0 4
721 1 1.3345351457240842e+00 1.1266606805727211e+00 1.2982789349927819e+01 -6 0 -3
802 1 -3.4081047240153222e+00 -1.6991419691198524e+00 1.5728602759483486e+01 -2 0 -1
412 1 1.7607116278292452e+00 -2.0452324240798969e+00 3.5677289260031846e+00 0 0 -1
1128 2 4.5000210499343698e+00 -5.2792055250127001e-01 6.5556900301781997e+00 -1 0 0
1126 1 3.7512788407805573e+00 2.1900958439319185e-01 6.4335673439605010e+00 -1 0 0
1127 2 3.9397128732740714e+00 9.4849406095055766e-01 7.0224020898000452e+00 -1 0 0
959 2 1.5509087140460073e+01 3.8767784000369474e+00 5.2878056012292776e+00 0 0 -1
723 2 2.3009749284625975e+00 1.2203531966015451e+00 1.3155763693762571e+01 -6 0 -3
646 1 8.8273787111535800e+00 -3.1499752127584988e+00 4.2372341711026147e+00 -3 0 -1
803 2 -4.0854211423442504e+00 -2.2751555436589896e+00 1.6133196623842132e+01 -2 0 -1
702 2 1.3375004856085644e+01 -9.8103614949212448e-01 1.0502649192928903e+01 -4 0 -3
686 2 6.4891387735981407e+00 -5.3816140852187644e-01 7.8529507785781174e+00 -3 0 0
3 2 -4.5059930725810791e+00 1.0970021502271399e+00 1.4776581095082289e+01 1 0 -1
1003 1 7.4770254806401182e-01 1.4937782477551185e+00 1.0387126274156754e+01 -3 0 -1
855 2 1.3347817773258255e+00 3.3034443850164639e+00 1.0637655686567067e+01 -3 0 -2
655 1 1.4718346586642081e+01 1.7549541489657878e+00 2.0575349062086006e+00 -2 0 2
84 2 -1.0732456087836049e+00 -3.2216323147279402e-01 1.3174001091501779e+01 2 0 -3
1244 2 -6.7034265140833282e-01 8.7355088616545551e+00 1.2597417280212346e+01 0 0 0
676 1 6.6051937305753103e+00 8.6476679590042860e-01 5.7550885983966360e-01 -5 0 0
678 2 5.7723257010113702e+00 1.2788179584891539e+00 8.8878963327241167e-01 -5 0 0
209 2 8.3260624170551676e+00 7.0842416696906998e+00 2.9902092101623325e+00 4 0 -1
414 2 1.4137413721973922e+00 -1.1533519421076854e+00 3.5286335865090153e+00 0 0 -1
685 1 6.8387947734204984e+00 8.5168644894220158e-03 8.5553928512346094e+00 -3 0 1
1004 2 1.0885618082137940e+00 1.0408030688501846e+00 1.1230194863528723e+01 -3 0 -1
1005 2 1.2444786316520746e+00 1.0200478167403917e+00 9.6258568692967170e+00 -3 0 -1
90 2 8.9266042425281427e+00 6.2160423598166705e+00 1.3970231748433331e+01 -2 0 0
690 2 7.3884604717975844e+00 -2.2554667549729386e+00 4.0070844424175611e+00 -2 0 -1
108 2 3.8728950811483820e+00 -1.1657110703791549e+00 1.8783363643712530e+01 -3 0 -3
1513 1 -4.1651204672672315e-01 1.6886761612074963e-01 6.9146569459323759e+00 1 0 1
202 1 1.3658838405390815e+01 2.4937031093929685e-01 2.1329954149407773e-01 -4 0 0
203 2 1.3462190373059146e+01 -5.8517778807746357e-01 7.2568770802543181e-01 -4 0 0
1107 2 1.0340012841563023e+01 2.2244819735696382e+00 1.8932852380995683e+01 0 0 1
1106 2 9.7873736001847433e+00 1.1776409118506006e+00 1.7734462772231009e+01 0 0 1
643 1 3.1271514239404530e+00 -2.4548865824464112e+00 9.6004550950474723e+00 -4 0 -1
645 2 3.7537115005666637e+00 -1.9889051902579749e+00 1.0154094407773133e+01 -4 0 -1
781 1 1.0867007924155402e+01 1.2520611341161514e-01 5.8830848544337835e+00 -3 0 -3
854 2 2.1221932171067777e+00 4.5692247421473127e+00 1.0306183789385072e+01 -3 0 -2
1105 1 9.8029686027862937e+00 2.1472039308832196e+00 1.8108290675666321e+01 0 0 1
636 2 7.8727001380175441e+00 -4.4670223025745859e-02 4.2945435198230113e+00 0 0 -4
782 2 1.0074936281349551e+01 -1.3770770537248955e-01 5.4415075620472511e+00 -3 0 -3
204 2 1.3870957571741309e+01 8.9222233552511998e-01 9.0396783304390438e-01 -4 0 0
783 2 1.1258080771855374e+01 8.6636641375491141e-01 5.4426135994243845e+00 -3 0 -3
208 1 9.2080917081944680e+00 7.2065143767687143e+00 2.6938235429869217e+00 4 0 -1
1174 1 5.3055269694131590e+00 -1.8264926507610866e+00 6.2086130941654876e+00 2 0 1
1176 2 5.8084035063585064e+00 -2.5575485255413049e+00 6.6617906726151359e+00 2 0 1
327 2 1.4534944428311663e+01 8.1240175539698090e-02 7.5696384515459885e+00 0 0 -1
325 1 1.4450892219804413e+01 7.8615429698867612e-01 6.8988407961472484e+00 0 0 -1
326 2 1.3920171867470920e+01 1.4986485566757537e+00 7.2122123994862388e+00 0 0 -1
260 2 3.5757746464549229e+00 -2.6970037589547089e+00 6.0929885621246456e+00 -1 0 -2
1913 2 6.6286167579593744e+00 1.6339572519292007e+00 8.5928935520821792e+00 -2 1 -1
1962 2 1.4851436462120460e+00 -2.3743972973721976e+00 1.0902593547438483e+01 0 1 0
242 2 1.0457448140628742e+01 2.8546420045177801e+00 4.1705699350467977e+00 1 0 0
882 2 -1.1631983608554293e+00 -2.8018814004744055e+00 6.3457447291312299e+00 -1 0 2
407 2 -3.3869317098588958e+00 -7.4447231777135325e-01 1.8490029478138482e+01 -2 0 -1
101 2 9.6556601518788359e+00 -2.6052378664862288e+00 8.9675271429449523e+00 -1 0 1
898 1 -2.3837720536379026e+00 8.3750894342724269e-01 1.2649423107391780e+01 -1 0 3
4 1 1.0804408965864026e+01 8.3241524314959037e+00 1.3527023810959362e+01 0 0 -1
769 1 9.5739498682831421e+00 7.3344189561939963e+00 9.4236759065985556e+00 0 0 -2
983 2 1.2870671058003198e+01 -9.2828871695250292e-01 4.1501615940837304e+00 -2 0 1
1656 2 -3.0755702414486361e+00 -2.0056388714264539e+00 1.2025200458850277e+01 0 0 0
1914 2 1.1862605481209581e+01 -6.4680822409428140e-01 1.4430981089182337e+01 -4 0 1
1559 2 3.9308179083028607e+00 6.4480459741055629e-01 1.4663705883529358e+01 1 0 1
837 2 4.2981307005376497e+00 -1.1790279138042901e+00 1.6891941623836349e+01 -1 0 -1
708 2 -4.8486814178095539e-01 -8.1161418855710821e-02 3.3669056828647315e+00 1 0 0
706 1 2.0413263019123251e-01 -7.5888307507412822e-02 2.6212903258509002e+00 1 0 0
406 1 -2.6039866460072743e+00 -1.3023816991841635e+00 1.8443793270000228e+01 -2 0 -1
701 2 1.2235975944329681e+01 -3.6851791411316848e-01 9.5456731565622306e+00 -4 0 -3
1091 2 4.9979834692526248e-01 9.1212424659989768e+00 7.7384841830762596e+00 -1 0 0
982 1 1.3648984292279998e+01 -3.8380425861902223e-01 4.2016545543082966e+00 -2 0 1
1949 2 2.4391663266067960e+00 -1.4255294329759804e-01 7.3425491139822689e+00 0 1 1
804 2 -2.9601367404680383e+00 -2.2741944972693844e+00 1.5125152797874639e+01 -2 0 -1
1 1 -4.3990737551402717e+00 2.9304038022181222e-01 1.4254945394787546e+01 1 0 -1
15 2 1.6733595115160398e+00 8.1289908588945927e+00 1.2015943859118650e+01 -3 0 -2
82 1 -4.1608424379071440e-01 -9.7585975403142111e-01 1.3507554113266574e+01 2 0 -2
853 1 1.4850246002125833e+00 4.1971479470235806e+00 1.1021272903166308e+01 -3 0 -1
634 1 8.5366051935224281e+00 5.3489000591010338e-01 4.5447496047737905e+00 0 0 -4
1076 2 9.3771876928644149e-01 3.3645691657459844e+00 1.1741711234030663e-01 0 0 0
683 2 1.2920054638450877e+01 -3.4771356573336361e+00 5.6963047732226419e+00 -2 0 2
1960 1 6.1816940857829739e-01 -2.4215947163580092e+00 1.1289441868016128e+01 0 1 0
273 2 9.8704731990016175e+00 -1.0092264019696664e+00 1.7671961408300682e+01 -1 0 -2
31 1 1.1965149825877161e+01 2.9914216635651938e+00 6.3844876381692683e-01 -4 0 -5
687 2 7.5631928071905996e+00 -4.6775257977344742e-01 8.9950430368596432e+00 -3 0 0
1515 2 -7.3785924614308729e-01 -2.0317258386103987e-02 6.0390874415756421e+00 1 0 1
1912 1 6.5156796399395009e+00 2.6059966280527238e+00 8.8488519989740908e+00 -2 1 -1
987 2 2.3837709215685683e+00 8.0962891088297884e-01 1.6604668177685394e+01 -3 0 -2
991 1 1.0783522206809344e+01 4.5640529535907159e-01 8.6699111152233979e+00 2 0 1
993 2 1.0873380582572462e+01 5.4250415124931717e-01 7.6866020991249000e+00 2 0 1
431 2 -1.5750302083323353e+00 6.1481050706263414e+00 7.2464141370475454e+00 1 0 4
2 2 -4.0948104363402980e+00 -4.3853168350395677e-01 1.4858519435234065e+01 1 0 -1
985 1 2.9633697300706823e+00 1.1145614120366165e-01 1.6231086279415322e+01 -3 0 -2
32 2 1.1430999987502792e+01 3.6317650852107555e+00 1.1794425491203384e+00 -4 0 -5
430 1 -1.3663161489669100e+00 5.3135907807812117e+00 7.7134012307182704e+00 1 0 4
1408 1 1.6786293811655639e+01 5.8414032136515370e+00 3.2338946023476054e+00 0 1 0
130 1 3.7317295686762999e+00 2.4532832319944360e+00 8.2736781796557626e+00 -2 0 -1
132 2 3.9869801779881726e+00 2.0710676882122714e+00 9.1218501771626812e+00 -2 0 -1
761 2 -9.0234294817983862e-01 -5.1699692637585715e-01 1.5710490973333968e+01 -1 0 0
762 2 -1.1386462242558482e+00 7.2047684780065335e-01 1.6637801356976194e+01 -1 0 0
1665 2 1.4308275198414091e+01 2.5515596154538560e+00 2.5161538670563184e+00 -2 1 2
1491 2 -1.9750544315311478e+00 2.4557082635498899e+00 1.8252387250593081e+01 1 1 -1
980 2 9.5761340522016880e+00 1.1411193095871806e+00 1.4056955096211560e+01 -2 0 0
142 1 -4.3599333441363708e+00 2.6608116544380618e+00 1.5735641662309499e+01 2 0 -2
1514 2 -1.1130731711560207e+00 3.7266611614770184e-01 7.5106723388121948e+00 1 0 1
635 2 8.1043865399679458e+00 1.1471191659117954e+00 5.1257862425466119e+00 0 0 -4
760 1 -7.9454779015728327e-01 -2.3606050251293897e-01 1.6647558904809575e+01 -1 0 0
981 2 1.0492793632988953e+01 2.2704100137890100e+00 1.4736185769459659e+01 -2 0 0
979 1 1.0198913286061481e+01 1.8644407169945039e+00 1.3878221958849785e+01 -2 0 0
816 2 6.9322157764467756e+00 2.9809823449316850e+00 1.4129359359970566e+01 3 0 1
335 2 -8.7432875171534885e-01 1.4135165021707889e+00 9.8309960752013641e+00 1 0 -2
334 1 -1.6466304035005559e+00 9.7132009165174704e-01 9.5055568264326151e+00 1 0 -1
906 2 5.5516158441617254e+00 2.7868569246809072e+00 8.5256957976891830e+00 -2 0 -1
373 1 3.3084872239873775e+00 9.0249869360400776e+00 2.3642686435579563e-01 1 0 0
1178 2 5.7820998230351055e+00 -8.7883510656042407e-01 1.1362087268059256e+01 0 0 0
672 2 1.2178318154897067e+01 -3.4761080066299037e+00 1.3155506865253964e+01 -4 0 -2
264 2 5.9572943040185606e+00 1.4648490398099820e+00 1.6768205882279243e+01 -1 0 0
862 1 6.1437300767856664e+00 6.8031615928242370e+00 1.0843901102427802e+01 -5 0 -3
1890 2 7.7444786191861636e+00 4.8976417842408182e-01 1.5014958938043259e+01 -1 1 0
1090 1 -1.0843126648247381e-01 8.3865350349879293e+00 7.4976552879164737e+00 -1 0 1
1089 2 1.5277553264613511e+01 -9.7606265759094679e-01 4.4793075554658195e+00 -1 0 2
1993 1 -3.5912319305063689e-01 -3.3898397546055787e+00 4.4878365139375838e+00 1 1 0
1361 2 5.8471467359259179e+00 -2.8945952358500877e+00 1.0778223283109453e+01 -1 1 0
126 2 1.3064669445449448e+01 8.0588535262440804e+00 4.2165828410135298e+00 -4 0 2
495 2 3.7514360440194645e+00 2.1030731800155831e+00 1.1535069368807877e+01 -4 0 -3
992 2 1.0601505776369475e+01 1.3478254250608837e+00 9.0405530573388013e+00 2 0 1
1994 2 2.3689495079561711e+00 -6.9589630181710183e-01 1.5953949815452887e+01 -3 0 -2
33 2 4.8579855981215685e+00 2.8639333498371009e+00 1.8879480342484147e+01 -4 0 -6
960 2 1.4571635240253439e+01 5.2220920996346667e+00 5.6422251009332216e+00 0 0 -1
958 1 1.5121631496611396e+01 4.7495810374157799e+00 4.9344913484053166e+00 0 0 -1
1625 2 1.2825603025845217e+01 6.2206054539042697e+00 7.4982938305213054e+00 0 0 0
1624 1 1.3635892561452874e+01 5.6479765107329580e+00 7.2883894700727181e+00 0 0 0
131 2 3.5928385098990550e+00 3.4153596768150631e+00 8.4675361807919618e+00 -2 0 -1
1410 2 1.6074464632913553e+01 5.4350909924637172e+00 3.7623493281004041e+00 0 1 0
401 2 1.6435047423865665e+01 6.5623684469393790e+00 2.7766453629165420e+00 0 0 0
1626 2 1.4379637985082397e+01 6.2572352334602446e+00 7.4642360407779957e+00 0 0 0
914 2 1.3806623904593962e+01 4.1669313359292648e+00 4.0301026407876943e+00 0 0 3
1398 2 9.3148529381011453e+00 4.9672070568777951e+00 5.1657577810029380e+00 -1 1 0
1067 2 3.1070316245829450e+00 2.9800947514097906e+00 2.9186254965343594e-01 -1 0 0
1066 1 3.9234419850863547e+00 2.6744397474511103e+00 7.9072500144370650e-01 -1 0 0
1068 2 4.3272067902412044e+00 3.3641820513053124e+00 1.3494174321524619e+00 -1 0 0
73 1 2.0532141869650275e-01 5.5977321254094132e+00 5.2382224306944247e-01 -6 0 2
74 2 1.7166212567780146e+01 5.6090788375294185e+00 6.4810524555404525e-01 -7 0 2
913 1 1.3248172203730796e+01 3.8072569429503673e+00 3.2661558305067233e+00 0 0 3
609 2 1.3869887545869446e+00 5.1693202513131080e+00 1.8720536557168195e+01 -1 0 2
607 1 2.2800095073708402e+00 4.7509561322459941e+00 1.8370427363300781e+01 -1 0 2
507 2 3.9616240413079531e+00 4.8246328768802318e+00 1.5373399612867104e+01 -4 0 -1
168 2 4.0582486858869657e+00 3.1195484462133241e+00 4.3910357003464524e+00 -5 0 -3
606 2 3.1249117043691879e+00 1.1084723277620601e+00 1.5447925889955882e+00 -1 0 2
505 1 4.8857727318695208e+00 4.6143050084733872e+00 1.5344077750280015e+01 -4 0 -1
506 2 4.8699339664636794e+00 3.8783065032649073e+00 1.4686776834538534e+01 -4 0 -1
161 2 4.8526075248214555e+00 3.5299106087071763e+00 1.6671102529319899e+01 2 0 -4
160 1 4.6966403046903205e+00 2.6555851925175418e+00 1.7099397698570556e+01 2 0 -4
162 2 3.7792410275501709e+00 2.3720666988624881e+00 1.6962392309433671e+01 2 0 -4
166 1 4.8034352837979872e+00 3.6978692041654107e+00 4.4889877097208943e+00 -5 0 -3
1075 1 -4.9687729757067940e+00 3.4846726668391002e+00 1.8628577096791904e+01 0 0 -1
1077 2 -4.8865872348652362e+00 4.4405750205407797e+00 1.8700412338341931e+01 1 0 -1
865 1 7.6744353130877947e+00 2.1106856040444777e+00 1.1333123613801394e+01 -6 0 -2
867 2 7.2402678751658449e+00 2.3588377015914439e+00 1.0498790173825226e+01 -6 0 -2
866 2 8.6200555272113846e+00 2.1116264043948885e+00 1.1069099577435209e+01 -6 0 -2
605 2 2.0385016047714535e+00 2.5799849931458674e-02 2.0473656446688078e+00 -1 0 2
604 1 2.9356072489453489e+00 2.8221907934935775e-01 2.1104891763508919e+00 -1 0 2
351 2 2.2736661496650430e+00 7.9432639112899466e+00 9.0183806230021180e+00 2 0 4
1146 2 8.7981133389182524e+00 4.4547336691586423e+00 9.5070158522229207e+00 -2 0 -1
608 2 2.0109610251061900e+00 3.8597840869413762e+00 1.8003967275937445e+01 -1 0 2
144 2 -3.7098280922989035e+00 2.5542547689955573e+00 1.6466798935506290e+01 2 0 -2
915 2 1.2446467582101256e+01 3.2949571380039311e+00 3.6405938769865918e+00 0 0 3
482 2 -1.8309326936250638e+00 3.2854664940589995e+00 1.6862979239091995e+01 0 0 -1
349 1 2.1380035400935067e+00 6.9740746467983552e+00 8.9556532104449733e+00 2 0 4
350 2 1.7768756935136700e+00 6.9613912691787778e+00 8.0391120867556456e+00 2 0 4
1396 1 8.9671790289840079e+00 4.1435913780887690e+00 4.7537142258940142e+00 -1 1 0
1397 2 8.1194579994013605e+00 3.9231297283523157e+00 5.2356355843343430e+00 -1 1 0
1166 2 4.8856878060863016e+00 -2.7797514316575027e+00 1.4242876148204372e+01 0 0 0
999 2 2.0964203543180453e+00 4.6392692709570280e+00 1.2388494943644853e+01 -5 0 1
1144 1 8.7811067638259068e+00 4.2167938074807116e+00 8.5320695521653338e+00 -2 0 -1
75 2 -6.4378899414706154e+00 5.6016639560879398e+00 1.8569043402545407e+01 -6 0 1
872 2 1.0159541689569199e+01 3.5014932531280492e+00 7.7421467146858003e+00 0 0 0
1489 1 -1.9162307045706601e+00 2.3890889341758506e+00 1.7245602588930282e+01 1 1 -1
661 1 1.1068967282760555e+01 3.2139339776149027e+00 1.6074681426345492e+01 -1 0 -1
143 2 -4.2354947504003384e+00 3.5098882243182778e+00 1.5274541296341230e+01 2 0 -2
663 2 1.1993249568355964e+01 2.9516966658182531e+00 1.6089054841463287e+01 -1 0 -1
167 2 4.6708014528085666e+00 4.2908560205534707e+00 5.2902194911701637e+00 -5 0 -4
1143 2 1.0597653800027191e+00 3.8751944385903494e+00 3.6712716875803668e+00 0 0 -1
270 2 5.3834306668298284e+00 4.0725996564939422e+00 1.2510170922786752e+01 5 0 0
1145 2 8.0616114503532259e+00 3.5652513420785823e+00 8.4362054689924655e+00 -2 0 -1
364 1 7.5430611217141830e-01 3.0797935654663045e+00 5.3656617862694889e+00 2 0 1
1141 1 9.2433560788155222e-01 4.1977067172389546e+00 2.7740753815013397e+00 0 0 -1
1008 2 6.1162058722580630e+00 2.9266206847304863e+00 5.2412656610215560e+00 -1 0 -3
1095 2 8.6100578407529582e+00 4.4952654709163458e+00 1.5068351968515692e+01 2 0 -1
998 2 2.4464991712205109e+00 5.9370383770717030e+00 1.3128090446128860e+01 -5 0 1
1142 2 2.4408764833747942e-01 4.8706348120846830e+00 2.8638217618886257e+00 0 0 -1
1006 1 6.9617460221300460e+00 2.5510863014959932e+00 5.6725901174775784e+00 -1 0 -3
1007 2 6.7072405192690869e+00 2.6490516412844931e+00 6.6335851488310773e+00 -1 0 -3
955 1 -3.7811351952018288e+00 6.3892466169325655e+00 1.8440257056288711e+01 1 0 -3
262 1 6.6332515596262001e+00 7.6369004821315656e-01 1.6597298242400164e+01 -1 0 0
365 2 1.4071982328043136e+00 2.4050378605195455e+00 5.0631656714676927e+00 2 0 1
543 2 3.3670559898885744e+00 5.6860585790856053e+00 6.5636375904661586e+00 -1 0 2
366 2 -9.7649376925346143e-02 2.6829404862827824e+00 5.5002405721553558e+00 2 0 1
336 2 -2.3329912129829404e+00 1.5590509510816499e+00 9.7872101250048349e+00 1 0 -2
997 1 2.6740771773190453e+00 5.0127199598783303e+00 1.3179831538161700e+01 -5 0 1
1996 1 1.0187105379573858e+01 2.5093891752187103e+00 1.0596609226028482e+01 0 1 0
1680 2 -3.8062712979515085e+00 6.2937367525123573e+00 1.5268105959332305e+01 2 0 0
1998 2 1.0470245974903575e+01 3.4110215219119100e+00 1.0400686269797033e+01 0 1 0
1678 1 -4.2040013713196025e+00 7.1116970762354921e+00 1.5596558857424725e+01 2 0 0
547 1 1.6727414705010659e+00 2.2554306634607055e+00 1.7466296064750139e+01 1 0 -2
1997 2 1.1004846837159182e+01 2.1453184798713796e+00 1.1181187670390095e+01 0 1 0
818 2 1.1398015038867495e+01 5.1005360510319981e+00 1.6509026978217346e+01 1 0 3
817 1 1.1588893596172451e+01 5.9939439200145905e+00 1.6924404677224871e+01 1 0 3
1526 2 1.3908705284175779e+01 3.0665844482066245e+00 9.4019222231424564e+00 1 0 -1
269 2 4.1201633144383774e+00 4.8924391540067376e+00 1.2426453890836116e+01 5 0 0
268 1 4.9483231174278508e+00 4.6768551154496549e+00 1.1875692734145264e+01 5 0 -1
814 1 6.1817251751389648e+00 2.6747440333747807e+00 1.3508111565705391e+01 3 0 1
815 2 6.7285053602319040e+00 2.4062801779995082e+00 1.2765123946338823e+01 3 0 1
956 2 -3.6093910360483132e+00 7.2624968555846543e+00 1.8827532297938106e+01 1 0 -3
957 2 -2.9789054913819886e+00 6.1906081503064225e+00 1.7889858515390529e+01 1 0 -3
1525 1 -3.5467855258972509e+00 3.1020629286436305e+00 1.0308924727912233e+01 2 0 0
1527 2 1.3716764103227625e+01 2.8191359767082824e+00 1.0932976461519026e+01 1 0 0
63 2 -6.2314308418612807e-01 6.3364831885248840e+00 1.4426281965403989e+01 0 0 -2
662 2 1.0652484584935154e+01 2.8087387322511761e+00 1.6851914721866216e+01 -1 0 -1
819 2 -5.4842848548091618e+00 6.2551056441988084e+00 1.6655857690758232e+01 2 0 3
717 2 1.2449927988080454e+00 4.5240673987754594e+00 6.1850181194269629e+00 0 0 1
716 2 9.9840566076232928e-01 5.9644858716785656e+00 5.9584548945794884e+00 0 0 1
715 1 1.3621668901621846e+00 5.3796296511536550e+00 6.6757448697559596e+00 0 0 1
873 2 1.0261088105264992e+01 3.0733799051274264e+00 6.2434103933521437e+00 0 0 0
1093 1 7.6769263563984174e+00 4.2542894707446823e+00 1.5189537867983464e+01 2 0 -1
1094 2 7.5685853856558571e+00 3.9723873137969781e+00 1.6115501627437261e+01 2 0 -1
306 2 -1.5572487978805580e+00 7.9902342991841895e+00 8.5136069231623992e+00 2 0 -2
210 2 9.4853293471346696e+00 6.2960506134651766e+00 2.3115930876059019e+00 4 0 -1
871 1 1.0692881929230648e+01 2.9397127421158551e+00 7.1163320115055777e+00 0 0 0
207 2 1.2419788746366489e+01 -2.3284320934959490e+00 1.8105165075811405e+00 -1 0 -1
304 1 -2.3625917980217248e+00 7.6968104173871499e+00 8.9555031603979938e+00 2 0 -2
96 2 1.4593586223804126e+01 5.8763219138730136e+00 8.4483547265980796e-01 -3 0 0
549 2 1.0147999169499471e+00 1.8981280120281312e+00 1.8078636224654073e+01 1 0 -2
1110 2 7.1930565303226768e+00 3.5277817195361338e+00 2.2009881588870503e+00 0 0 0
780 2 3.6084301248295496e+00 6.4932007027644598e+00 3.1770833283519657e+00 2 0 0
809 2 -4.7841005035943684e+00 5.0807199550070798e+00 1.3742762999629731e+01 -2 0 -1
511 1 4.6386198036105615e+00 6.7305311889159878e+00 1.9082428716386016e+01 3 0 -1
1455 2 -6.9777865586337695e-01 5.6907759911497742e+00 9.5490954090618150e+00 -2 1 -1
548 2 1.2047638975232671e+00 2.6583081119769867e+00 1.6643295577588514e+01 1 0 -2
541 1 4.3002068647867668e+00 5.5626027908191400e+00 6.2570886959004000e+00 -1 0 2
1454 2 2.9702385375169138e-01 5.0743173104537824e+00 1.0613153191770785e+01 -2 1 -1
94 1 1.5279428979135590e+01 5.7782725111430153e+00 1.1509579553942717e-01 -3 0 0
1453 1 -5.0417549245988225e-01 5.6964411000225006e+00 1.0542143165463784e+01 -2 1 -1
512 2 3.9467811725194757e+00 6.1142227088651602e+00 1.8760395495977782e+01 3 0 -1
1679 2 -4.5852586112927316e+00 7.4239396681341265e+00 1.4791221991048547e+01 2 0 0
256 1 3.5238515100457497e+00 4.8646021939709136e+00 9.3879337805948939e+00 -2 0 -1
542 2 4.2879506399957892e+00 6.1983122359798752e+00 5.4873235660096098e+00 -1 0 2
61 1 -1.7198827193894672e-01 6.7683880323847081e+00 1.5169611362771642e+01 0 0 -2
257 2 3.2942077012510400e+00 5.7940938160428779e+00 9.0571108130435576e+00 -2 0 -1
258 2 4.2336862960322303e+00 4.8009411676828027e+00 1.0045269947227270e+01 -2 0 -1
450 2 1.0442901064116118e+01 5.1163093349363269e+00 1.3149518438147265e+01 0 0 1
448 1 9.6110727518688783e+00 4.6834745439832091e+00 1.3343211549132729e+01 0 0 1
533 2 8.8697106003071760e+00 6.9061494974557682e+00 1.7872216367781860e+01 -2 0 -1
449 2 9.7944084042604693e+00 3.7166757733734297e+00 1.3302061506069609e+01 0 0 1
447 2 1.4691182329187701e+01 7.2157256303934343e+00 5.3077626827620774e+00 2 0 2
62 2 7.3879325512354121e-01 6.5580597100223041e+00 1.5028803976753249e+01 0 0 -2
546 2 2.6785507976533580e+00 7.0117314399510189e+00 1.5673811883595709e+01 1 0 1
544 1 2.3342503760894484e+00 6.1111586737638639e+00 1.5655209770434036e+01 1 0 1
545 2 2.3399120038382435e+00 5.7620184905994414e+00 1.6595469614487296e+01 1 0 1
234 2 -1.2023749080379682e+00 5.9054248440660899e+00 1.6404993341759038e+01 -1 0 1
1108 1 6.2810549181078192e+00 3.8671101384206130e+00 2.0415749771826417e+00 0 0 0
353 2 9.3144880668154926e+00 3.8507679225400331e+00 2.1362779210954774e+00 -1 0 2
1109 2 5.8405453526754210e+00 3.9162755785870749e+00 2.9004035538616995e+00 0 0 0
808 1 -3.9408072663273526e+00 4.8219185982246628e+00 1.4172443152576260e+01 -2 0 -1
513 2 5.1579209427878832e+00 7.0340544347191507e+00 1.8324494833476034e+01 3 0 -1
908 2 1.2586006106909602e+01 5.9544337602494295e+00 1.1416387789316818e+00 -3 0 0
778 1 4.0144184830524283e+00 6.9506586644830080e+00 3.9962825531549173e+00 2 0 1
779 2 3.4012809303833453e+00 7.6783227946580759e+00 4.1246153721812409e+00 2 0 1
644 2 2.6732735179414409e+00 -1.6682772487152013e+00 9.1237181525661306e+00 -4 0 -1
232 1 -1.7454605420547242e+00 5.3687044277711014e+00 1.7044941963629153e+01 -1 0 1
347 2 -3.3394962759348088e+00 6.4266572163116820e+00 9.8408153498933952e+00 0 0 -3
695 2 2.4698007982075580e+00 5.0375888572029019e+00 2.1463440323016547e+00 1 0 2
346 1 1.4230760661678509e+01 5.9890805294163378e+00 1.0585808947939952e+01 -1 0 -3
1895 2 7.5578163324073069e+00 5.9277768588350401e+00 1.1061880668413441e+01 0 1 0
617 2 1.1827623612255156e+01 5.8647814190635401e+00 1.1678447243085879e+01 -2 0 -1
436 1 5.6711929234255507e+00 7.0686974127331617e+00 8.0021224817874934e+00 -2 0 -2
445 1 1.5375022602617690e+01 7.5986140276950138e+00 5.9041752503108400e+00 2 0 2