LAMMPS data file via write_data, version 8 Apr 2021, timestep = 13773000

1008 atoms
2 atom types

0.22044952046260177 18.179105479538038 xlo xhi
0.1660475722410413 22.40434142774566 ylo yhi
0.08897487021771162 19.416741129798762 zlo zhi
-0.30411120102466244 -6.6176076415577425 -0.04231404681195234 xy xz yz

Masses

1 16
2 2

Atoms # atomic

1 1 6.7455194887808 1.192562727642981 4.653364323302765 0 0 0
3 2 6.720773210239211 1.3788606190005037 3.683545811401837 0 0 0
4 1 3.9756360236425343 1.1868909114767314 5.228325157268309 0 0 0
6 2 4.034837980478162 1.677107343720162 6.089606491050714 0 0 0
7 1 -0.4125228453698875 6.308903223999421 4.869413239366063 0 0 0
8 2 -0.34990450210028035 5.916624744775526 5.768543327764677 0 0 0
10 1 2.3430079333539044 6.538064718536551 4.734178132965206 0 0 0
11 2 1.4477744863645476 6.802819157993792 4.717323738453147 0 0 0
12 2 2.718929661437452 7.423267576251345 4.733304997427128 0 0 0
18 2 5.821422954789484 5.2659331134020215 1.0788018607153105 0 0 0
25 1 4.804496785822753 6.648146216194158 6.815741501569663 0 0 0
26 2 5.549714989320148 6.8970271713904685 7.382660791267473 0 0 0
27 2 3.963984370459123 6.710339961031352 7.3332519233892715 0 0 0
28 1 6.136297193260561 6.379914806842041 2.3859150886935176 0 0 0
29 2 5.936023420845878 6.107333209743121 3.3172585902378198 0 0 0
30 2 5.61742438248435 7.173720318540287 2.1491668265737562 0 0 0
31 1 1.0311072666866812 1.414213303942294 2.258803900874429 0 0 0
33 2 0.888676885496561 1.7806306458515242 3.215504661702409 0 0 0
34 1 0.42545735527740886 1.2075185074112045 7.435685177098005 0 0 0
36 2 0.4203715735664875 1.7727289469617478 8.25698590233641 0 0 0
37 1 6.295168277184955 2.7010041753378418 2.345042553146072 0 0 0
38 2 5.47716458891099 3.1195577662898004 2.7229058882273103 0 0 0
39 2 7.050257538490276 3.174401796893719 2.7594127078010753 0 0 0
40 1 4.126767527819608 2.8471845401404616 7.474863884039563 0 0 0
41 2 5.051310018629831 3.0448680753092203 7.208517104113234 0 0 0
42 2 3.462661861096429 3.400213827399021 7.036211072268051 0 0 0
43 1 -0.024249691129507256 4.975394158779248 7.383659872359754 0 0 0
44 2 -0.6812820749007404 4.29225967535537 7.2486580664167946 0 0 0
45 2 -0.1630274774755869 5.291138593639168 8.288192400278003 0 0 0
46 1 2.0211942623055 4.845204477636248 2.4605163740905063 0 0 0
47 2 1.1424789481669488 4.5468280252039195 2.8017251614187977 0 0 0
48 2 2.146221259806235 5.668767841916682 2.9403908843341098 0 0 0
49 1 6.6436676147897895 3.3899418782542825 6.420689254836661 0 0 0
50 2 6.149216725437721 4.09380202843139 5.87886682882951 0 0 0
51 2 6.67451066244675 2.677122267915506 5.765430199226262 0 0 0
52 1 3.9707063774834763 3.3128387085355584 3.7349454722215527 0 0 0
53 2 3.159802994621745 3.7334806152217026 3.377652644927197 0 0 0
54 2 3.702598896614132 2.5765647314619096 4.318105195286814 0 0 0
57 2 -0.3569135943612701 3.531143873300763 4.197113117482669 0 0 0
58 1 2.250630188231042 4.193756824498351 6.204283229323758 0 0 0
59 2 2.3671224828523836 5.103062803816304 5.789059580054741 0 0 0
60 2 1.5485285766920234 4.333496268398366 6.890754656244704 0 0 0
61 1 8.533404721406098 7.10306795126353 1.3884213670769066 0 0 0
62 2 7.833484152353037 6.902299554886112 2.017865711220574 0 0 0
64 1 2.537895344835582 6.859248942543552 8.355792495262156 0 0 0
65 2 1.755898980295339 7.370353489341638 7.983068593318487 0 0 0
72 2 3.8554871284384196 1.4154898865103234 0.9101569543901296 0 0 0
73 1 5.447147495548117 5.204779774696026 4.827567763673343 0 0 0
74 2 5.178912971134997 5.878554593077261 5.519841684516649 0 0 0
75 2 4.688380816676811 4.712463747069711 4.503711850851377 0 0 0
76 1 0.7716204489242161 2.383724859795121 4.944861041341866 0 0 0
77 2 0.6147360368661614 1.8145783677466618 5.722673667947627 0 0 0
78 2 1.3669353302283878 3.0610999272414356 5.309602621647351 0 0 0
91 1 8.296429381418495 6.451634479525561 5.185832766240559 0 0 0
92 2 8.016997768650382 5.584000175950046 4.724689834292249 0 0 0
93 2 9.212404859295132 6.63888498663188 4.941050449694633 0 0 0
116 2 10.23823927470027 1.850069437178775 1.7521326500864718 0 0 0
127 1 8.846831286291156 4.8173926326073175 7.1853261637454064 0 0 0
128 2 8.345385686676993 4.046564567400641 6.846626551373877 0 0 0
129 2 8.643604343701082 5.5934733140906285 6.622483985578367 0 0 0
139 1 8.387007188291161 4.0586496853282314 3.2702813305375984 0 0 0
140 2 9.08895810570625 4.177856215548575 2.6168613194745496 0 0 0
141 2 8.85729895219905 3.664186419912248 4.060444929871366 0 0 0
169 1 6.442963134457153 8.65721885636725 4.494950983708663 0 0 0
170 2 6.900672344841701 7.909202557842103 4.897297984523274 0 0 0
171 2 6.553873865481192 9.453548418413131 5.079259016826716 0 0 0
172 1 3.5829799160502303 8.855163729747078 5.422019110350615 0 0 0
173 2 3.590846015501466 9.44895258896591 4.618907806526932 0 0 0
174 2 4.451665014690858 8.459139849511164 5.331414166856396 0 0 0
199 1 1.1675466755220816 8.603750595525746 2.772036592828213 0 0 0
200 2 1.047415167628291 9.405601743360329 2.2036911139245694 0 0 0
201 2 0.453325606630938 8.023961400756495 2.4591167219993344 0 0 0
202 1 0.45456693896549544 8.25696518502263 7.516699813146767 0 0 0
203 2 -0.4241842577434911 7.92834349031372 7.628911646469901 0 0 0
204 2 0.48438040076562183 8.63751048384048 6.586241827490329 0 0 0
205 1 6.204461571256343 9.978298940436815 2.1592829231810753 0 0 0
206 2 6.24463645457626 9.279296843655281 2.835794864057602 0 0 0
207 2 6.4743731559526845 9.52181764594622 1.3037809250988301 0 0 0
208 1 4.247722567468032 10.31687700374603 7.575169265214507 0 0 0
238 1 3.720729312309231 7.818682651578526 1.5292993000234483 0 0 0
239 2 2.887548385886404 8.113275582330369 2.0112121151282287 0 0 0
240 2 4.104674447381709 8.627797163745214 1.1145687538082563 0 0 0
244 1 0.5760178171028457 9.693007999854178 5.131883026514763 0 0 0
245 2 0.8559944769712481 9.423897769863656 4.213374109276184 0 0 0
283 1 10.260757979741552 8.728871922450038 2.3841282711218295 0 0 0
285 2 9.73508317168756 7.903670391676504 2.305745402670983 0 0 0
288 2 8.806784259464626 8.598129644869228 7.293482990860876 0 0 0
319 1 7.104806377799888 7.8588268339187355 8.269522280520478 0 0 0
66 2 2.9493057649699272 7.546994381842844 8.947393531707332 0 0 0
21 2 1.0950645800453387 2.570897690874775 0.852843215020665 0 0 0
321 2 7.554938346746694 7.248259344545797 9.008042746405586 0 0 0
120 2 9.435895482482664 1.7107298541349323 6.614472312972785 0 0 0
192 2 0.5199776939091921 9.607415806810305 8.789748002888745 0 0 0
5 2 4.871313924068714 1.1354735062662111 4.842561338383635 0 0 0
272 2 9.769307628810312 9.815357173222381 1.0296797014347696 0 0 0
153 2 6.31393955064213 1.484080310779851 8.658305222915422 0 0 0
330 2 9.103612801589632 10.213345363083135 4.4264284582112845 0 0 0
320 2 6.774490718441146 8.581436632962872 8.824966563022326 0 0 0
115 1 10.483795542684021 1.1977398879342784 2.4143882567760957 0 0 0
118 1 9.285350744009191 1.1868283899314274 7.434577803827313 0 0 0
130 1 11.110633342369784 4.754641322834692 2.437248699490546 0 0 0
160 1 9.818297787503857 2.5672650060006883 5.163730540629554 0 0 0
162 2 10.188613857281101 1.9748199898945167 4.438260601485714 0 0 0
284 2 10.33861958616902 9.065016418082052 3.3279126216849355 0 0 0
329 2 9.832396914561738 9.40956555473233 5.640314712937796 0 0 0
132 2 11.026067259117342 5.338474898797915 3.217097152091483 0 0 0
286 1 9.69118611321534 8.852580643193162 7.211853732035121 0 0 0
328 1 9.958365624391151 9.943537961092982 4.8197509216203285 0 0 0
94 1 11.129426687633057 6.559771830110969 4.841513458051383 0 0 0
119 2 9.342980972336651 1.925124594125093 8.059098550196147 0 0 0
131 2 11.777034513414122 4.158395103004025 2.839450242269739 0 0 0
161 2 10.492612086422083 3.24953173776464 5.344676303362284 0 0 0
287 2 10.134868109418626 8.140001666562496 7.718798929315923 0 0 0
144 2 10.471800963842975 4.563567655153594 6.80016779992525 0 0 0
323 2 12.036252510161088 8.263367553857424 2.110437030879241 0 0 0
276 2 9.559474720328266 9.874590268699448 8.657510015947073 0 0 0
96 2 11.359865552554384 5.819094552971039 5.4644695336664535 0 0 0
95 2 11.799161870287096 7.292292127760367 4.839734385623398 0 0 0
322 1 12.828917951429311 8.230960692973207 1.470189426602394 0 0 0
142 1 11.360996781423962 4.513099780844162 6.3857550701048 0 0 0
155 2 13.251322407630086 1.4278333181137035 0.9246323607996827 0 0 0
136 1 12.937227160187604 3.266571318180918 3.7347138222632816 0 0 0
14 2 5.375978688353163 5.213346457605891 8.779226470186162 0 0 0
35 2 -0.38973159767863375 0.7637380342491454 7.49058346065747 0 0 0
324 2 12.463460861558948 7.638923282951229 0.8499908192243462 0 0 0
99 2 12.700195906203131 4.812510674860126 9.684707912827545 0 0 0
67 1 -2.11291799542526 0.3467273986671716 8.493053064588585 0 0 0
83 2 2.1199099856508616 5.31083654187366 0.7118718472672901 0 0 0
585 2 3.655172312285627 2.1469792136640318 8.902561243294018 0 0 0
63 2 8.605774269224876 6.24023511753194 0.9021117559993552 0 0 0
271 1 9.744316845684542 10.158117584771714 0.1340718283091287 0 0 0
86 2 16.319805080989063 0.34175120826585337 4.882581224046402 0 0 0
246 2 1.142460310710384 10.41520866484949 5.514273037671725 0 0 0
56 2 -0.834071926585098 4.892507200843369 3.970678679488154 0 0 0
221 2 4.671797868643652 10.74470817258737 2.9678664561163646 0 0 0
671 2 8.343250456772992 5.264409178294954 9.031860740336345 0 0 0
220 1 3.8572235870756844 10.947127533710551 3.4936910353102313 0 0 0
32 2 1.9887305224014293 1.111763078195717 2.2216200136085504 0 0 0
293 2 12.329943228176981 10.884381105406932 6.913669849332369 0 0 0
290 2 15.974662184863059 10.298536998574104 2.3069028970286545 0 0 0
304 1 12.792737347489714 10.812509251603739 3.4901838479513576 0 0 0
210 2 3.9827765448758026 9.612894275384269 6.921747117521325 0 0 0
235 1 -2.2466919225767787 8.050017742444343 7.962043906717412 0 0 0
584 2 2.8556841530737103 0.8182272131072671 9.33247553943841 0 0 0
151 1 6.580459628795371 0.7549126765515358 7.998761653465949 0 0 0
148 1 11.085140653582718 7.0824508829175326 8.64989925509592 0 0 0
143 2 12.001545661266778 4.1047751616804415 6.976442097632071 0 0 0
258 2 12.685456404261865 9.303698664917432 4.552207564291373 0 0 0
149 2 10.941467652706574 6.324761463418493 9.257756817700484 0 0 0
89 2 12.880903878252202 1.8133580101321305 4.8481684583132845 0 0 0
138 2 13.687308035566511 3.0522161379921338 3.1879928074663826 0 0 0
150 2 11.414176497962472 7.818782660639875 9.198112330370574 0 0 0
88 1 12.762207280227654 1.0306725254543583 5.4268246651153635 0 0 0
256 1 12.792255529552707 8.494423729007838 5.140908043498362 0 0 0
306 2 13.492086438203547 10.548029810872714 2.8946138726874975 0 0 0
101 2 14.51298580725756 5.398410895443617 1.2496013987156007 0 0 0
137 2 13.192438912321823 3.99715753884997 4.317226017464684 0 0 0
113 2 13.879694483880108 7.154989816724724 2.4714378382519224 0 0 0
294 2 13.023276628688578 9.58725460444123 6.478602535533642 0 0 0
126 2 13.105425533495504 2.020808307578802 6.882821636925345 0 0 0
111 2 12.652880168341351 6.873840321811636 7.512333764458202 0 0 0
257 2 13.757368885820474 8.2921124599318 4.977108073644889 0 0 0
292 1 13.07514035248669 10.240183634673015 7.2167959038233915 0 0 0
68 2 -2.215776483047701 1.1574010463681035 9.092908768334786 0 0 0
80 2 6.58644118167309 2.302435830657214 0.8149472897980818 0 0 0
167 2 11.064107213452322 5.594087042337742 0.8460003011663946 0 0 0
9 2 -1.0396222384541323 7.047730588421166 4.963324700069843 0 0 0
84 2 3.145466130268372 6.53850640045269 0.6826719451446375 0 0 0
301 1 15.40037345848472 10.832992516741827 5.945255988425038 0 0 0
187 1 0.8239844185189615 10.162444614193909 0.6671591432406903 0 0 0
55 1 -0.6404302742961607 4.070233766352856 3.4276126191117364 0 0 0
236 2 -2.52546108902232 8.701708155351072 8.65593563520657 0 0 0
106 1 9.256211203093326 2.7841431561922882 9.631708902415273 0 0 0
694 1 3.755405854265847 10.289673600300288 0.21978644677845385 0 0 1
69 2 15.017932689882267 0.22828687761949906 7.963787018745214 0 0 0
224 2 -0.4293300410196046 10.80932237351252 3.9879545067941438 0 0 0
22 1 0.4825568128538822 2.5318386907789847 9.621324092156794 0 0 0
109 1 13.547689085945992 6.54563671470148 7.418033694676777 0 0 0
274 1 9.700551891009402 10.175350044063224 9.571931748374979 0 0 0
668 2 13.129336608543701 1.8908558650019798 9.00173824813004 0 0 0
583 1 3.341874555992454 1.6004923419540877 9.709938668613578 0 0 0
159 2 14.271384783204697 5.746451633490541 5.831162312880008 0 0 0
209 2 3.5328791204894983 10.948649574806929 7.4423154392616055 0 0 0
70 1 3.608245536811621 0.6706386875171454 1.47642137033908 0 0 0
309 2 7.289688912614518 11.135174814717336 3.0134618009446594 0 0 0
90 2 13.573411152877341 0.5611551626846376 5.298531501482754 0 0 0
124 1 13.420737621012789 2.6852835875676564 7.519307685910316 0 0 0
836 2 12.739133875801446 9.687317180556144 8.833402199386965 0 0 0
125 2 14.380761525643868 2.824751286959231 7.311257244123149 0 0 0
122 2 16.170188584752736 2.8272307097008964 2.725070214444689 0 0 0
255 2 15.537460610830061 8.793600780302242 3.7434654324291636 0 0 0
121 1 15.3995615776037 2.2249195961359662 2.6323567113237725 0 0 0
289 1 15.199699063579848 9.70598823719723 2.4340637917803707 0 0 0
112 1 14.61182219461857 6.526739858784051 2.6849933490152056 0 0 0
158 2 14.523852227549828 5.715866553995928 4.372552764212733 0 0 0
123 2 15.249939005272706 2.259664242429254 1.6685735887977011 0 0 0
291 2 14.956564428226 9.318101331920273 1.5821533176464893 0 0 0
157 1 14.444162998935896 5.123677803519062 5.132333465370361 0 0 0
110 2 13.652726294282274 5.863504781206556 8.13568583230054 0 0 0
311 2 10.744837781846472 11.180323076646587 5.6001589350534084 0 0 0
753 2 4.0927799984368605 9.45986497525783 9.140555648606275 0 0 0
219 2 5.7451656573489265 10.655280324757035 7.0351761092361595 0 0 0
190 1 0.5239884951576729 10.209120416844268 9.608129903728466 0 0 0
780 2 12.733009483320016 9.49236578577162 0.525329528779895 0 0 0
602 2 16.4077081360916 4.966079379054767 0.1841140212103368 0 0 0
87 2 15.54433335847731 1.4259761318153865 4.144369636582407 0 0 0
248 2 7.545865967210016 8.161631636744403 0.2632837225861728 0 0 0
23 2 1.1583782087900751 3.2366443672385947 9.569693957407765 0 0 0
114 2 15.515596229105745 6.8212571447888575 2.443327501336893 0 0 0
82 1 2.5054413111342586 6.022532061241837 0.11705914665731994 0 0 1
486 2 11.583531769329165 0.24271347724798253 8.647988454542558 0 0 0
154 1 13.004551134643055 0.7035203091955478 1.537600632525421 0 0 0
222 2 3.1201916816568884 11.200674379959699 2.856203432448231 0 0 0
16 1 5.743037408712264 4.880954513639273 0.16870713489893838 0 0 0
152 2 7.5146994564984535 0.8548509071938362 7.735559245205339 0 0 0
133 1 -1.9930241934270363 3.4499226092089974 6.433044845148628 1 0 0
146 2 17.24228450162187 6.405557938526153 1.1323589450755258 0 0 0
305 2 11.922787440865497 10.963562971172692 3.0488965512513513 0 0 0
156 2 12.138958531809521 0.8464085750519098 1.9430578627938724 0 0 0
147 2 16.6306268827568 7.856506521219311 1.2146195687817818 0 0 0
15 2 4.013491468032021 4.716056574421825 9.391869730159152 0 0 0
134 2 15.53283143594149 4.125223041932881 5.910700385966565 0 0 0
587 2 -1.5970930575723183 6.704881243268578 9.085983931928784 0 0 0
521 2 2.0921446636875904 5.408268426868069 9.514130068310399 0 0 0
302 2 14.680724454717748 10.767843694241297 6.618794094876619 0 0 0
145 1 17.059847607823702 7.156449985032439 1.7727342982290022 0 0 0
399 2 7.842387697021414 0.5148295131169112 0.9657971131967608 0 0 0
483 2 0.07501401809521827 0.16818333237451047 1.8621107190370236 1 1 0
253 1 15.541632238194051 8.310315548653023 4.678163372829672 0 0 0
2 2 7.426939165068486 0.5808360903564534 4.896328399359881 0 0 0
237 2 14.90139939918087 7.528447949759628 7.755320048982491 0 0 0
85 1 15.7553239035991 1.140779627650353 5.045703424169886 0 0 0
189 2 1.781368416568781 10.369014717567065 0.7622373935486643 0 0 0
254 2 15.876893076818241 9.020668807686716 5.273014648986537 0 0 0
117 2 9.751353564373401 0.5506651108388706 2.4143259760162046 0 0 0
165 2 16.785411409532525 0.9242861674880081 0.5745619221830066 0 0 0
135 2 15.937993984344281 2.6033378101043994 5.988134977933284 0 0 0
188 2 0.8959771891664186 9.31489896990606 0.10286152126179966 0 0 1
102 2 14.06290537745028 4.18016081034533 0.1364370310615488 0 0 0
97 1 13.6636285396257 4.9734485363570515 9.47895945092271 0 0 0
696 2 4.536266937825533 10.896099290608694 0.17988787928520178 0 0 1
217 1 6.43392764017812 10.689337528502472 6.331556946303818 0 0 0
17 2 5.196326648208109 4.084073858132631 0.14429733264071506 0 0 0
13 1 4.924379147222461 4.872468749723152 9.585913565480523 0 0 0
100 1 14.638104934396464 4.948748553669432 0.2955174441254671 0 0 0
586 1 -0.984857571490084 6.1738264125025255 9.678853431522692 0 0 0
108 2 8.274610776971635 2.957248030113167 9.689233077632936 0 0 0
835 1 12.568942306693597 9.067168917051003 9.629445959436973 0 0 0
667 1 12.74092070715727 1.342598115158147 9.752141981726439 0 0 0
24 2 -0.36904292410606776 2.9720113889979185 9.746344463582668 0 0 0
20 2 -6.062401784204941 3.721468642387255 19.222034304625005 0 0 -1
520 1 2.2243767714497054 4.5574701379332945 10.001226023573327 0 0 0
654 2 7.893016635014281 6.14841074242257 18.604948320822274 0 0 0
509 2 0.010017395799248513 0.5495034739669686 14.447885452858797 0 0 0
752 2 3.428501299781668 9.50680566705349 10.56414891984026 0 0 0
249 2 0.5755691443755285 9.076860367364393 18.458244732407753 0 0 0
524 2 -2.841001929482779 3.5713903842814325 9.885010752292368 0 0 0
808 1 9.572810457241609 10.814972135135777 13.07587046699114 0 0 0
19 1 -5.369639490035747 3.034128689487175 19.34151021669298 0 0 -1
191 2 0.7042083293615148 9.540009445128948 10.267021894957303 0 0 0
601 1 10.717102507249493 5.162655978643027 19.28265334736861 0 0 0
609 2 6.427137727337369 2.520677861259356 10.918677267817598 0 0 0
604 1 11.070764783086943 4.950760793471427 9.96570394678319 0 0 0
906 2 -1.9822363648116705 0.2484069059906291 17.458096475732795 0 0 0
778 1 6.039283945308653 10.186663312029255 19.21787463818923 0 0 0
903 2 4.429027066673922 0.5322915986838579 10.372675442238238 0 0 0
672 2 8.588012354339499 6.320748503544449 10.21065869451028 0 0 0
656 2 2.502457163626441 0.298977447028987 17.713335272776767 0 1 0
505 1 3.132805222229609 1.2426916916909396 14.473736633205405 0 0 0
506 2 3.4376571426083595 1.964473003769427 15.039440332763501 0 0 0
571 1 -5.535822548089124 0.7578046134863393 17.895831447064374 0 0 0
508 1 0.42292278432385544 1.4506296276237298 14.647729287621154 0 0 0
693 2 -1.4285820454052358 10.316613313785941 9.982513468528621 0 0 0
527 2 -2.5343351146712862 2.127079148054799 18.340258185165936 0 0 0
511 1 -3.9219788459023532 6.568492788202085 14.619873545106966 0 0 0
512 2 -4.27491699314048 5.8642762638013695 14.011900143684302 0 0 0
513 2 -3.9186601037500988 6.218961245317634 15.493434746627496 0 0 0
514 1 -1.296337138331756 6.650828185087722 14.409316709333638 0 0 0
515 2 -1.0030479879782548 5.975206969838407 15.108817517592014 0 0 0
516 2 -2.319601420069166 6.611107711482561 14.436054610513574 0 0 0
728 2 -3.6033551090294242 11.17546166474241 13.435339344419214 0 0 0
519 2 1.6786734936684953 5.266555027555264 18.19656328002923 0 0 0
828 2 8.431375743057643 8.163772203041122 11.4372476590327 0 0 0
522 2 2.06370661285317 4.831133539283102 10.940154713842773 0 0 0
590 2 11.262825529867508 0.8767013093310305 14.670618958195263 0 0 0
510 2 1.4064079270936531 1.2483885086037265 14.593509435486144 0 0 0
105 2 3.360781381889655 2.1605577042122297 18.8198697440139 0 0 0
798 2 9.436134762481363 9.151870247697524 16.050525771117602 0 0 0
721 1 3.4841749574822476 10.713139351200967 15.934747605647516 0 0 0
529 1 1.0344497795126866 6.574225716237049 16.74318215720252 0 0 0
530 2 1.3296298247380407 5.9919938791707255 15.998801006955231 0 0 0
531 2 0.13346959253733548 6.411718273658843 16.870484869883136 0 0 0
532 1 2.0368573223482698 6.517263575422228 12.2960471912838 0 0 0
533 2 3.0395956550883514 6.6183935420104545 12.155035969341142 0 0 0
534 2 2.097834693511384 6.201686593798578 13.220984986946538 0 0 0
535 1 -1.7600499466451451 1.4099928907398565 12.138269046775378 0 0 0
525 2 -2.209824683930137 2.4823426040345047 10.89406109409911 0 0 0
623 2 5.044231083823834 0.6923212750677439 17.075226112234496 0 0 0
538 1 -3.176280478001807 1.2541957003203263 16.801571674273873 0 0 0
669 2 12.240399309958239 1.9514046115757306 10.358311813890458 0 0 0
540 2 -3.2815429776927934 1.3768795568675358 15.851068854210952 0 0 0
541 1 2.839907364141909 2.65966694525353 12.103714576039453 0 0 0
542 2 3.026665185636215 1.89305864055569 12.599998038357688 0 0 0
543 2 2.9721895347825864 2.40482701362894 11.183030308273523 0 0 0
544 1 0.9523911434109416 2.611702023853534 16.967669541330057 0 0 0
545 2 0.7988562534986222 2.3077588047063067 17.870790972713813 0 0 0
546 2 0.6122607871145315 2.045578508455181 16.277779781315136 0 0 0
547 1 -3.5334973785622994 5.03806377724845 16.971058661717375 0 0 0
548 2 -4.11905163735373 4.334141665703148 16.68791899927748 0 0 0
549 2 -3.7160799861034817 5.193649522326106 17.9735063633965 0 0 0
550 1 -1.706242974863018 5.2558834289573895 12.081098665912108 0 0 0
551 2 -1.0973255834807836 4.510781633289912 12.24521036212391 0 0 0
552 2 -1.369690764461395 5.88009127804256 12.744641483833869 0 0 0
553 1 3.2745116569232446 3.5515123629339587 16.227030316075535 0 0 0
554 2 2.5463220094012633 3.252921407272381 16.87031278705207 0 0 0
555 2 4.031047051189676 3.9613411867839323 16.690825646910138 0 0 0
556 1 0.44088021246265935 3.52510944422952 12.808577504910973 0 0 0
557 2 1.298444001410352 3.4186634877903113 12.271788396887393 0 0 0
558 2 0.32452878812700686 2.668665683198638 13.237650478100322 0 0 0
559 1 13.750340046363574 4.356746512140379 12.769625180534218 -1 0 0
560 2 -3.4238532491427742 4.732532801306074 12.377137845970337 0 0 0
561 2 -3.849943974350006 3.612063877037832 13.30370279969992 0 0 0
562 1 -1.127354847399285 4.409129468582249 15.96167349670826 0 0 0
563 2 -0.5342314610512725 3.865716942569816 16.50588688039499 0 0 0
564 2 -1.876707143556322 4.602695245162483 16.57185325871405 0 0 0
565 1 4.677185249665928 6.895913372149681 11.587257454064549 0 0 0
743 2 0.01318987947911146 7.322624288265301 10.51851687116529 0 0 0
536 2 -2.3616518573821548 0.6893032252823043 11.881816158358228 0 0 0
568 1 -1.42015164524624 7.058221645088257 18.083176570052853 0 0 0
603 2 10.697090796998948 5.622840320521107 18.423673944354555 0 0 0
333 2 8.865662070340251 8.1109754707959 18.77323103943366 0 0 0
168 2 3.924513821882543 6.8017294905812 19.26062724513372 0 0 0
572 2 -5.513802806661285 1.6712106454040954 18.41095048981666 0 0 0
827 2 9.97561932635108 7.638704358239453 11.51865357652447 0 0 0
570 2 -0.6321013640346747 7.58945854383647 18.44693834963286 0 0 0
576 2 0.8164243731229536 1.0828719287105222 10.852048190215488 0 0 0
577 1 1.6710884823494152 4.993004763849317 14.640316484655026 0 0 0
578 2 0.962744478984249 4.447217668196025 14.15008202458026 0 0 0
579 2 2.386276886959325 4.341963409396861 14.862882202344597 0 0 0
580 1 -2.924151264608763 2.7591939652617357 14.36679336194147 0 0 0
581 2 -2.5314313637984283 2.1032702313424165 13.713299948848352 0 0 0
582 2 -2.1875849069893243 3.2792528652849398 14.741494045620223 0 0 0
528 2 -3.461248320809936 3.0554445865335467 19.06919784406886 0 0 -1
107 2 9.40237582952234 2.048796817366057 10.232851472996055 0 0 0
589 1 12.157180617450598 1.132144911840855 14.403477389134267 0 0 0
81 2 -0.36192354786129455 1.1732374180256588 19.163097868249 0 0 0
591 2 12.286792687398085 1.9758998508502446 14.936560341558938 0 0 0
592 1 9.202458489999241 1.4967547086853121 14.912825552817058 0 0 0
826 1 9.196556201816156 7.836332079596221 10.917031492300417 0 0 0
594 2 8.872121681768895 2.2353419038749314 14.41113574828546 0 0 0
595 1 5.045440067220674 6.492693826499053 15.005143236707864 0 0 0
596 2 5.215247062752294 6.135314018446188 15.894704427104543 0 0 0
597 2 4.775375817970918 5.738613914958716 14.45895517572768 0 0 0
598 1 7.858787001637781 6.5389198823744135 14.398277779759416 0 0 0
599 2 6.904201519947802 6.574581291341133 14.7081023234721 0 0 0
600 2 7.8194644957087815 5.864624274260078 13.68803855813643 0 0 0
658 1 9.169827372714954 0.41706726690843765 11.469821400754537 0 0 0
526 1 -2.589830890631947 2.680664499700882 19.149257114925987 0 0 0
620 2 6.22896675969757 0.6229167860965313 12.026341617494626 0 0 0
605 2 10.93790589927946 5.301929548155078 10.877744413609806 0 0 0
832 1 6.422405538001351 9.900212839810758 14.44110070961355 0 0 0
794 2 12.6397061334679 11.066047522814943 12.324405578855448 0 0 0
825 2 3.101183178530277 8.831033268626786 18.3687403024593 0 0 0
621 2 7.567986080903699 1.1276699909033452 12.359259048470777 0 0 0
566 2 4.9253493496221825 6.357653889962175 10.784035185634774 0 0 0
611 2 6.407387185293449 2.2873861949751455 18.458436615415692 0 0 0
613 1 10.665912441554562 6.68277949522981 16.857772882207538 0 0 0
614 2 11.337936088124563 7.184263339909387 17.332354257437256 0 0 0
615 2 9.838478547804161 7.113652633318252 17.01154284890632 0 0 0
616 1 11.24729905041707 6.5085089594149785 12.054465150879697 0 0 0
617 2 11.173683948587902 6.338063624955731 13.028009737509338 0 0 0
618 2 12.166942302631178 6.768104939608435 11.911507277325708 0 0 0
619 1 6.63535531284497 1.3574028997474288 12.459260541852258 0 0 0
986 2 13.735349806644082 0.4370672820039798 10.546866202818265 0 0 0
749 2 -1.9926246253575952 10.555210145049255 14.790429294077084 0 0 0
622 1 5.909919531871967 1.164581267853301 16.970232712982604 0 0 0
711 2 2.1339014033474673 10.196671937026453 12.409236583228667 0 0 0
624 2 5.958919871579503 1.6777651491382244 16.161303766006352 0 0 0
625 1 11.571655395189255 2.7054786934394026 11.988794582303786 0 0 0
626 2 11.589736156090826 2.1799555282633007 12.823439080093374 0 0 0
627 2 12.123171159724624 3.521501054019747 12.211438369729043 0 0 0
628 1 10.242352911019493 2.8304217383074377 17.03646124213501 0 0 0
629 2 10.130140823149059 2.4332426240512413 17.957633965364067 0 0 0
630 2 9.95291833515398 2.1482622074679427 16.32416617162976 0 0 0
631 1 5.397675916059528 4.962197805758008 17.206063356754832 0 0 0
632 2 5.235675250316415 5.298073974281298 18.09832086990386 0 0 0
633 2 6.308616837406764 4.615716774749227 17.118420978777678 0 0 0
634 1 7.091999118902584 4.767248341734901 12.16256050648288 0 0 0
635 2 6.157395759602489 4.55776269223091 12.457982694581117 0 0 0
636 2 7.232507382201207 4.869863929601553 11.209211783480493 0 0 0
637 1 12.41628403149063 3.415724774739267 15.81147906559993 0 0 0
638 2 12.086570360957301 4.225224117532918 15.2936035692594 0 0 0
639 2 11.748345134426911 3.2753672489026133 16.514538111153115 0 0 0
640 1 9.178667104298727 3.5217308546676453 13.194118150639758 0 0 0
641 2 8.390121759960577 3.8889169602689853 12.717149125613469 0 0 0
642 2 9.77573891895223 3.100009516745887 12.496677753638142 0 0 0
643 1 4.680777796114245 4.328820983772837 13.25005943146631 0 0 0
644 2 4.1023475128997 3.779401960314394 12.679566405249155 0 0 0
645 2 4.939472840545866 3.6862542126765745 13.957971155877535 0 0 0
646 1 7.992811575002696 4.25316691838084 16.10230352622693 0 0 0
647 2 8.84548132373209 4.031464925281726 16.48732803947223 0 0 0
648 2 8.182954775050026 5.097923140335635 15.626498829670886 0 0 0
649 1 13.779774921737708 7.146825938338776 10.967684878495803 0 0 0
650 2 13.43160418783767 7.903739947279796 10.464469955906628 0 0 0
651 2 -3.475802543621589 7.5189276021625195 11.554349352413798 0 0 0
652 1 8.04687945930486 6.957084851380838 17.999081321468683 0 0 0
653 2 7.17828335108088 7.245087693334989 17.677752636872118 0 0 0
837 2 12.25489323679754 9.66379135589289 10.396787121284895 0 0 0
507 2 3.7085289248977475 0.4323279168308325 14.536265437703111 0 0 0
103 1 3.68848836665328 2.9023474051145266 19.385415741261465 0 0 -1
661 1 11.206056186047421 5.499421638078232 14.599888631847211 0 0 0
662 2 11.028187250181722 6.1595394966103 15.321873268464646 0 0 0
663 2 10.44408500919074 4.930029604635028 14.45509831607474 0 0 0
664 1 6.04576957115657 2.6236329167806844 14.85325149535585 0 0 0
665 2 6.808218100445705 3.084378044230942 15.175581287681123 0 0 0
666 2 6.426161212931027 2.1131257428021395 14.084608985981413 0 0 0
573 2 11.578220145138673 0.5006486701222469 17.458270290598104 0 0 0
796 1 9.612918765930214 9.851349982911652 16.645858131704394 0 0 0
537 2 -0.8501804383933058 1.0384918241000318 12.090554279486396 0 0 0
673 1 3.118681359061894 8.380633664826375 14.671928344021532 0 0 0
674 2 3.7770395527682035 7.661728608258836 14.608150946952678 0 0 0
675 2 3.5906845266554135 9.198949400945752 15.073483479814515 0 0 0
676 1 0.3983693947736143 8.893966514203354 14.43401106848936 0 0 0
677 2 1.246402587352901 8.455308447390054 14.610542852906928 0 0 0
678 2 -0.2089743694976903 8.078803277126875 14.326868571894973 0 0 0
607 1 6.605999728655393 2.770685580179618 9.984564581439074 0 0 0
812 2 4.223156200882435 11.163811310808066 12.55363959242498 0 0 0
518 2 0.9681721973926793 4.62816280788312 19.29240410922793 0 0 -1
807 2 12.35946006897745 10.105977298639123 15.329855091814636 0 0 0
695 2 -2.795768598848307 9.821275763070307 18.7008971081244 0 0 0
164 2 9.054230047308558 1.1657416312444049 18.871631565723376 0 0 0
703 1 -2.2548140340676364 8.607926894065637 12.442234169705552 0 0 0
704 2 -2.3461435588838637 9.276250994096133 11.786098874154169 0 0 0
705 2 -1.3536344408775045 8.246301418723931 12.259509952558396 0 0 0
706 1 -3.152737715806478 8.848573380170246 17.10339998517323 0 0 0
707 2 -3.0154355991256616 9.213410197702663 16.212252615910128 0 0 0
708 2 -2.4453612497158317 8.228533713985806 17.240042492770772 0 0 0
709 1 2.9969192757035854 9.719862406094274 12.288357593145923 0 0 0
710 2 3.0217329020234325 9.049911402074166 13.052960953938937 0 0 0
795 2 12.118983156567264 9.594985756642386 12.802960247442082 0 0 0
712 1 0.8091133387563318 10.117952990579294 17.013504108247265 0 0 0