LAMMPS data file via write_data, version 8 Apr 2021, timestep = 21655000

576 atoms
2 atom types

0.31292976586297666 17.607071234138367 xlo xhi
0.10792876586289205 17.402070234139114 ylo yhi
0.4579297658595674 17.752071234137507 zlo zhi

Masses

1 16
2 2

Atoms # atomic

377 2 1.206082670377576 1.7531601597189874 3.7458035724121594 0 -1 4
410 2 3.175883718421955 1.3776080376124464 2.3449500940211645 1 0 0
376 1 2.134816003810717 2.0097716271187327 3.9439915043261093 0 -1 4
378 2 2.22500321683392 2.9837515239159047 4.032653147317929 0 -1 4
411 2 4.446192563548373 1.6446758492131528 1.4255684326745806 1 0 0
409 1 3.8563683133190003 0.9347577715532713 1.7835345282027963 1 0 0
113 2 0.963341813051912 3.4827139473151942 0.5246512699402279 0 1 1
567 2 2.543027996116202 0.43435364880645355 0.47221653114255374 2 2 1
223 1 5.185794067710105 4.335610697864047 3.11131289950251 1 0 1
165 2 5.363973609602921 3.166903611075382 4.260966144078447 -1 1 2
69 2 8.443819038820594 2.981879221406359 2.14499534527971 -2 1 0
68 2 8.455246249921542 4.039071385105878 3.321953754079486 -2 1 0
310 1 8.17332912662975 1.2470321675153504 2.1389324047909164 4 1 3
209 2 6.578187455085172 1.9340845866787082 1.0132766672967748 -1 0 2
312 2 7.999539936268117 0.8253561394304624 2.9973543936024325 4 1 3
67 1 8.629170081755605 3.927190334938452 2.3380423002609803 -2 1 0
210 2 5.790729129050014 2.921582013655449 1.9558892974003332 -1 0 2
208 1 5.77076394772796 2.553230953138255 1.0607191681776618 -1 0 2
311 2 8.895237357489052 0.7200520890949723 1.717608776952343 4 1 3
569 2 9.974542597134574 4.170290150099599 1.4532332844441807 2 0 1
324 2 12.458078985725304 3.263255769151723 1.172786609592831 -3 -1 1
323 2 12.603846746036313 2.029591922638945 1.9789569951564676 -3 -1 1
118 1 12.04924273490172 0.4178489685232737 3.0751766893670904 -3 5 -1
119 2 11.361628377637315 0.7946637505106107 3.665232413263002 -3 5 -1
568 1 10.871217492671361 4.052946335209609 0.9517654636872771 2 0 1
322 1 13.162678318322488 2.662397172577059 1.488800266605573 -3 -1 1
230 2 13.87970738139484 2.3113716069421195 3.68961154568281 -4 1 2
231 2 13.493107769284125 3.726956596515327 3.8644813432059015 -4 1 2
246 2 16.618636573866596 1.858183755541893 1.6387649851462767 -2 2 0
170 2 14.93124721570275 3.0996759439638955 1.8205177652724598 -2 0 0
169 1 15.784431417196872 3.37828119889467 1.3295093840265289 -2 0 0
244 1 17.06016042475738 1.051798024650627 1.9640433769727526 -2 2 0
245 2 16.69575358605032 0.7943636090276702 2.836748701657427 -2 2 0
171 2 16.26390657246097 4.032998519103739 1.8159615983634856 -2 0 0
229 1 14.077024242008747 3.056053524343392 4.254734047321046 -4 1 2
281 2 15.456695797299105 0.3864420010244414 0.6800017118320746 -3 0 3
79 1 15.891478935369959 0.38557339119288003 4.4624315492629085 0 1 -1
224 2 4.228695583646084 4.546131378049839 3.0308543770153866 1 0 1
199 1 2.5578272845934267 4.705178225425735 3.4724378811564582 2 2 1
200 2 2.6870150973811056 5.226125501990444 4.263527396041308 2 2 1
201 2 1.7944882024831101 5.040674620621992 2.9283196894326466 2 2 1
564 2 1.0272945094760522 8.476226389149266 4.422480536342487 0 -1 0
19 1 3.812823796581581 7.214558247867479 1.2146146406299696 0 -1 1
20 2 3.6345829630365833 8.11873916461791 1.4001042316032877 0 -1 1
375 2 0.5614532493377127 5.874554660802465 1.1371148555499597 -1 -1 0
21 2 4.677089708342579 6.992287166767661 1.5175052133445042 0 -1 1
498 2 4.638241937580097 8.715783127113939 4.612026335099071 -1 0 -1
496 1 5.151925576869748 7.886503283559938 4.780296913248332 -1 0 -1
225 2 5.77987780355579 5.098235107958802 3.145191957136561 1 0 1
470 2 5.903851581048636 7.271920234439453 3.256253362327268 -2 -1 2
471 2 7.305354024986002 6.743598988845159 2.6747719986985357 -2 -1 2
469 1 6.317492108975568 6.7453447626107 2.5273678245536564 -2 -1 2
316 1 9.12435906285116 6.585006251463309 3.3401390730047322 0 0 0
317 2 9.154718869517916 7.420910705666292 3.765963399466395 0 0 0
318 2 9.578846739231414 6.086627693351161 4.015785403740778 0 0 0
7 1 12.516270843593272 5.368930438207274 3.195386053774967 -1 3 -3
384 2 9.831180499475993 6.613741009558261 1.5860825229807989 1 2 1
9 2 11.945005976028328 5.010643023593628 2.490209536461993 -1 3 -3
288 2 12.203909388264675 7.315719252292758 1.015438760202643 1 -1 -2
382 1 10.544255501664583 6.772953294829877 0.935156980592991 1 2 1
8 2 11.910100729375205 5.544128958369774 3.935566543274237 -1 3 -3
286 1 13.12582378464682 7.7117550231013094 0.8492309033714279 1 -1 -2
373 1 17.544679610795377 5.375682517774047 1.8945206907044791 -2 -1 0
452 2 13.623214686294956 6.830713823630513 3.4450054424878513 5 -1 -1
453 2 13.993074587033783 8.371693024881594 3.7889000501723165 5 -1 -1
451 1 14.231361703187963 7.394738127787489 3.9258313092665325 5 -1 -1
472 1 16.9813472527044 7.569839112666682 3.1311477837508788 1 1 1
374 2 17.178972205757802 6.128565894229948 2.38023638149154 -2 -1 0
473 2 16.05918965129142 7.478363550450932 3.483255666312341 1 1 1
474 2 16.92516731895775 8.368096117181056 2.5952649603147346 1 1 1
393 2 17.5211041408661 8.718088960881854 0.9147795432069383 2 -1 0
237 2 1.9149797279606426 1.9667573041092805 5.856647269007473 0 1 0
235 1 2.0826533683142143 2.0531344366397395 6.779314956223122 0 1 0
236 2 2.6100499980878835 1.262688198172394 7.059197710153014 0 1 0
387 2 3.3615550371792002 3.330153131785123 6.814863071517276 -1 1 0
385 1 4.1057588015019935 3.9438557243456693 6.784196882019316 -1 1 0
359 2 0.7370507729110614 2.517154972025265 7.585491787132188 -1 0 1
386 2 4.425886363818185 4.117606773783828 7.707246015321588 -1 1 0
163 1 5.660653701213921 2.7425227244746164 5.085235528356314 -1 1 2
448 1 8.0595020730597 3.9301052195556303 4.9535373635214786 1 -1 1
450 2 7.213316402047128 3.3962573047031785 5.173322998530796 1 -1 1
542 2 6.470757988706801 0.4387789570766716 6.85239429733745 0 2 3
269 2 8.073387897229104 1.7735416973246492 8.162221389017922 0 3 4
222 2 5.36177887100147 1.0153480320075103 5.3268117551712155 1 1 2
164 2 5.193621429584653 3.288625359292641 5.738723275087882 -1 1 2
268 1 8.904115458341282 2.1638969300273634 8.516970748889149 0 3 4
449 2 8.814436735725666 3.74178444399385 5.592036806104596 1 -1 1
543 2 6.343915936047457 0.6868240282272587 8.438215666925878 0 2 3
541 1 6.964112616518297 0.7317922480456 7.670434100887848 0 2 3
270 2 9.537031589343458 1.5098857644862802 9.0011003889214 0 3 4
27 2 9.694662962813323 0.4646295601638455 4.96948954754594 2 2 1
524 2 12.487677769535733 3.7224750264242865 7.2307807424980215 0 0 -1
25 1 10.528457793021083 0.9021731368715221 5.271196893833554 2 2 1
365 2 9.65914283369348 2.9802495240043676 7.219445789246988 -1 1 0
364 1 10.232460514559628 3.3117001388914553 6.492436997201819 -1 1 0
366 2 10.479982380294308 2.495351827559461 6.025913443395027 -1 1 0
26 2 10.979514354619205 0.2568203243665631 5.950984396480394 2 2 1
285 2 14.61224135708769 0.5000297531834939 6.973063101259283 -2 1 1
358 1 17.221761058270356 2.6999339613588096 8.108024541300452 -2 0 1
81 2 15.595685312747687 1.0095381938435353 5.1239629186382905 0 1 -1
216 2 14.52828788946118 2.7196035411854136 6.125826403023817 1 -2 1
214 1 15.087495361470872 1.9960449476425461 6.446084483393506 1 -2 1
215 2 15.732153808675056 2.3564289335723205 7.144282320162022 1 -2 1
360 2 17.429043271523952 3.625665565716016 8.375806360814115 -2 0 1
499 1 3.012936293187321 8.734129642468796 8.973613933652766 -1 -1 0
249 2 1.1381273402107142 5.574748624276658 8.92912778219444 0 1 -2
497 2 4.346803462399774 7.31587534455207 4.986574298449353 -1 0 -1
464 2 0.6808507014365026 7.369156333614499 7.241526985088021 1 3 0
465 2 1.6023062415430553 8.296503175297676 6.433513222192751 1 3 0
500 2 2.4966735764766512 8.05210015865434 8.478434762231046 -1 -1 0
481 1 3.28486003484813 6.276872562896457 5.612947925404196 0 -3 0
483 2 2.6627422309286826 6.754439137813133 6.2286496314156 0 -3 0
482 2 3.6109895723839296 5.594049510356374 6.221858031767913 0 -3 0
463 1 1.5782925586188887 7.594440667279914 7.109443881824692 1 3 0
103 1 6.885017769176054 6.331982952815559 8.883486722804625 0 -1 -3
122 2 7.2866278082444005 5.703879667341838 5.498004199884098 0 2 2
123 2 6.42408513692634 7.041137565487002 5.636029220893102 0 2 2
561 2 8.708221926103603 7.263190790555804 6.462883259133433 -5 0 0
121 1 7.241063459586842 6.569546640010335 5.996416202281689 0 2 2
105 2 7.005654646957514 6.478889430032537 7.926118269166867 0 -1 -3
560 2 9.44374369542468 8.134510839969238 7.528191005095893 -5 0 0
425 2 11.699706339344182 7.731132760244428 8.77759372503688 -1 0 -1
101 2 9.98318917318633 6.694378386338782 8.631983935844723 -1 2 1
523 1 12.860028488689498 4.615378154253691 7.260927531882897 0 0 -1
342 2 9.85527803593962 8.65388680236555 5.350609317756415 -1 -2 1
576 2 10.456196036367105 6.526529706408668 5.902208536442304 -1 2 2
525 2 12.850888387892237 4.751525007301266 8.245008159322724 0 0 -1
424 1 12.296699231233347 8.432886552833889 8.461136248826246 -1 0 -1
574 1 10.837343540775109 5.793433400339862 5.406208748028882 -1 2 2
426 2 12.572423629421255 7.993974076648248 7.6248497957164165 -1 0 -1
559 1 9.594358888539116 7.5670410236700585 6.747171181921409 -5 0 0
575 2 10.850896548536646 4.9505998444379955 5.936201968810705 -1 2 2
189 2 14.090415815107752 7.170714442285781 5.6120832144624275 1 -1 1
187 1 13.921999764581109 7.06776678828514 6.591659616229513 1 -1 1
71 2 16.54486150213035 6.263710352228674 8.282342767752956 1 0 -1
72 2 15.395927619627388 6.799160323589099 7.408787812496531 1 0 -1
188 2 13.474413367900729 6.217518402156387 6.6762708755507765 1 -1 1
70 1 16.200576904574955 7.0866600826897 7.8617896128594555 1 0 -1
247 1 17.52417872021216 5.192677889485308 8.900978197217759 -1 1 -2
293 2 16.363588571408265 8.621146997568625 8.73993891090746 1 -1 -1
394 1 0.9633014838646214 1.7590849735837921 12.442047922348852 0 3 0
396 2 0.8407866081768121 2.7306453461172495 12.674948415051752 0 3 0
345 2 4.493301896217374 1.349699214200324 9.944888618371316 2 0 1
395 2 0.3707837202292875 1.2313798185355163 13.143821187122587 0 3 0
537 2 2.219820684351548 0.20273222402939614 12.7360638862598 0 -1 3
35 2 5.145601696857398 2.604946631343701 12.392087720497342 -1 -2 -3
34 1 5.586210539993546 2.8702368986005147 11.580544665970434 -1 -2 -3
36 2 6.3040790122448795 2.2168924673715376 11.479756863570737 -1 -2 -3
553 1 7.398451664702434 0.7903708436397255 11.673001727345572 0 -4 1
555 2 7.8631140474471275 1.0291848141872149 12.506304532138298 0 -4 1
31 1 8.49961744529342 4.390823086888748 10.110287562856888 1 0 1
432 2 5.220729297872957 3.4640451347949797 9.916937698635026 2 -1 -1
32 2 8.541127657041093 3.421933669893132 9.809177192429527 1 0 1
33 2 8.6968272612077 4.234930808194611 11.066826758244614 1 0 1
430 1 5.122458882780431 4.035269553537256 9.138233524101961 2 -1 -1
260 2 6.3300405467551 4.326607580567667 12.21885813794249 1 1 4
343 1 4.790497751708746 0.6747251809916583 9.383199245175202 2 0 1
540 2 11.398362993038981 1.4187675027058622 10.18909169431522 2 1 1
184 1 12.207310426488357 2.5501603871232246 11.23131992973508 -1 -2 1
185 2 12.291946891188159 3.3603516251549315 10.69027605893702 -1 -2 1
186 2 13.120267078601506 2.1561490192525343 11.371954072624307 -1 -2 1
401 2 10.756616951970162 3.4007014058386873 12.60612965848128 0 -1 -3
400 1 9.836879491992768 3.5403630916188975 12.911376886380813 0 -1 -3
538 1 10.69578250780711 0.7554502932472683 9.911679805528655 2 1 1
402 2 9.844895145066104 4.374669408449618 13.411263564075586 0 -1 -3
539 2 11.088158304319162 0.3793779495188023 9.11220422828422 2 1 1
530 2 17.399361576230188 1.2819251880247988 10.925062437073516 -1 2 2
350 2 15.425924709599915 1.2621004425836315 11.222494434214553 2 -1 -2
349 1 14.721147988763782 1.615315120481575 11.807465017420052 2 -1 -2
351 2 14.19997777265102 0.89608972941311 12.146742272408815 2 -1 -2
480 2 14.927512173567777 3.0672577095651534 12.641448775529925 -2 -4 0
529 1 16.85024164397145 0.8616131180013014 10.196569349366717 -1 2 2
478 1 15.190636408342321 3.93428353877277 12.947117251052592 -2 -4 0
531 2 16.817647738743528 1.434049562443858 9.389127422906514 -1 2 2
156 2 0.9221756574778468 4.942401006215416 11.888361542569879 4 2 1
37 1 1.250288854641242 8.440611554898217 12.797573237022638 0 4 0
571 1 2.2949026600194022 6.037307252843247 12.240434802769087 2 -1 3
198 2 2.714576238356749 5.96406656262658 10.544623995042839 0 0 1
572 2 1.6786776495770104 6.761678536540948 12.470691711169263 2 -1 3
3 2 4.008723401072008 6.78032495568077 12.885882985446404 2 -2 0
573 2 2.4273755214332593 5.5408582594931195 13.045449111650102 2 -1 3
196 1 2.8370628572149768 5.633430618025671 9.647111943802026 0 0 1
197 2 3.6590520196688985 5.1548495025641206 9.520112294551518 0 0 1
501 2 3.6505782041346833 8.237463272492587 9.463861662466204 -1 -1 0
104 2 7.579085488290166 5.774467792815838 9.284504381133793 0 -1 -3
259 1 6.6929112426294335 5.044856164284395 12.794854947119946 1 1 4
87 2 5.278732174696465 7.430631432027761 11.224989290577895 1 3 -3
2 2 5.558719803017028 6.248717631442805 13.022528706140157 2 -2 0
1 1 4.876076780640623 6.9489022394859 13.228934707540933 2 -2 0
42 2 8.274582216177395 7.522154187409298 12.032841415068356 -2 -2 -1
85 1 5.3427670862849945 7.906102561737787 10.37581934773229 1 3 -3
41 2 8.129776820386533 6.132657882280244 11.798481887866206 -2 -2 -1
40 1 8.666689189800366 6.835405896535152 11.429303793415219 -2 -2 -1
86 2 5.964723087026686 7.396572028308745 9.756866138263762 1 3 -3
431 2 5.958963569954825 4.630345248191619 9.128509674420727 2 -1 -1
100 1 10.547711873558969 6.532468582050743 9.387829942563343 -1 2 1
193 1 10.987319980884292 7.563497541816191 12.76320401847799 2 1 0
194 2 11.72913665216993 6.979514309436542 12.702018509188889 2 1 0
195 2 10.19759885302927 7.077846529441055 12.444976417983236 2 1 0
102 2 9.9202823966183 6.224169873644697 10.033474110564585 -1 2 1
151 1 12.54390077506902 4.876399980662731 9.895942262907731 1 1 -1
153 2 13.052786317233618 5.396448300630975 10.559562538971637 1 1 -1
152 2 11.792003970753521 5.514713868501144 9.715468106766458 1 1 -1
154 1 17.46929555064405 4.508958111600982 11.485790784730934 3 2 1
155 2 16.691395258744546 4.521372356191314 12.077940280173204 3 2 1
248 2 17.519775715231617 4.7871573940952565 9.843321387027132 -1 1 -2
294 2 15.537606529701762 8.652762707677429 9.919890623259715 1 -1 -1
513 2 13.95420776782781 6.7015415812753565 11.906988677231716 0 0 3
512 2 14.331843736302623 5.241824540250348 12.512075285524254 0 0 3
511 1 13.661195285757357 5.923951434111812 12.43674145014779 0 0 3
273 2 13.320224318812263 8.152935876404998 10.063220982936826 0 2 2
51 2 16.742825495702775 8.407948887319101 13.2936903915852 -2 1 1
271 1 14.021127825476027 8.198810082904567 10.713921845029075 0 2 2
565 1 1.9198057302776885 0.3142495825373718 17.09958731174729 2 2 0
566 2 1.493563601047861 1.1727156127934957 16.983237906847354 2 2 0
114 2 2.158928271490141 3.3254841915385245 16.87985397204231 0 1 0
134 2 3.6158219658236352 3.8792537742588067 14.372472110633664 3 3 1
489 2 4.352659654365932 1.414557978815363 14.715780747074566 0 -2 1
487 1 4.587277284290224 2.2562953871150198 14.22258772943681 0 -2 1
256 1 4.002671829768083 4.089667368930878 17.14312021417923 0 -2 -2
112 1 1.2413115882148584 3.005977732704421 17.049721590098038 0 1 0
255 2 1.3168614269743035 4.152521824353248 14.765209384138366 2 3 -1
253 1 0.32886810038319947 4.134242370070053 14.740054751845022 2 3 -1
257 2 4.7573207697490005 3.464661935896155 17.316900460222328 0 -2 -2
488 2 5.451170210184632 2.5922699631848047 14.621676984580652 0 -2 1
503 2 7.470811414853164 2.6103234664476718 14.778175380820866 0 -2 -1
502 1 6.899588823587025 3.4127624934905683 14.933236373299941 0 -2 -1
504 2 7.382250992066565 3.812548991229625 15.675917055877159 0 -2 -1
124 1 8.511522696140526 1.578216654464765 14.051367617122757 -1 -1 0
126 2 9.090643327590797 2.2547588112166586 13.740687386335429 -1 -1 0
125 2 9.017291417408963 0.9068726041187839 14.554745449639414 -1 -1 0
546 2 10.815932900760947 0.6061804999312792 16.9707543172317 0 -3 1
544 1 10.972484819034586 1.2498535062624208 16.27459799170404 0 -3 1
545 2 10.910859644093557 2.1503316489992756 16.63794970264457 0 -3 1
309 2 12.623403578651114 0.9300197200155023 15.933751087535287 -2 -2 -1
254 2 17.25097864214887 3.635841183459112 15.49420338789064 1 3 -1
307 1 13.515337302686858 0.6384609262215698 15.620545804092497 -2 -2 -1
179 2 15.465027275696814 2.823804878997511 16.643257341494163 -2 -2 -3
109 1 16.91939392595325 0.559850155194649 14.319246986039307 -1 -1 1
479 2 15.702335597886831 3.9221414677715063 13.767083033517475 -2 -4 0
111 2 16.60525765189055 1.2338778662507663 14.899256607332333 -1 -1 1
178 1 15.512439031134896 2.6671066096926865 15.678836366878715 -2 -2 -3
180 2 14.692900120125016 2.2415102942687994 15.43384270747469 -2 -2 -3
308 2 13.405707775515255 0.12089546832623554 14.832581213237038 -2 -2 -1
258 2 4.392583183125036 4.973545027296583 17.416790907229664 0 -2 -2
133 1 2.9256046696420572 4.581290382073488 14.426193384381163 3 3 1
135 2 3.3031011160908936 5.258981100609404 15.120447959903561 3 3 1
379 1 3.2520865956800846 6.8679065032128594 16.06364278539719 1 0 -2
381 2 3.1681954979756997 7.675238742597859 15.514603499529516 1 0 -2
380 2 3.596459125784393 7.047358640315595 17.04075432294918 1 0 -2
548 2 1.5037108679501296 7.429868187682081 16.67017293525183 3 2 -4
547 1 0.6760066949090102 7.42284869880221 17.226649168209146 3 2 -4
275 2 8.266174942728172 4.753591183216704 17.594391894676548 2 0 -3
62 2 6.405960225103399 8.180760502311266 17.189386429156247 0 -2 -1
261 2 6.992644700115125 4.703876351732755 13.62249108002973 1 1 4
274 1 7.889716990895577 5.161795121344323 16.761877985983254 2 0 -3
514 1 7.986516290468483 8.066336561346327 14.231319064518962 1 -1 -1
183 2 5.3177970635620255 6.737791079469765 15.759856927750779 -3 0 -2
182 2 6.611700647518164 6.23123208622949 16.54427605194801 -3 0 -2
181 1 6.000023007541769 7.016147665972139 16.353073128222775 -3 0 -2
516 2 7.255487911952899 8.10984419269643 14.918031047846751 1 -1 -1
276 2 8.532702908177665 5.281303754273206 16.041490090078835 2 0 -3
99 2 8.838441964409633 6.482326573701641 14.39034694853752 -1 3 -2
570 2 11.009159413788677 4.833329233980806 17.709222014660945 2 0 0
338 2 12.837593302237769 5.840609210130519 13.988266716636822 -1 2 0
287 2 13.03751159146042 7.950455526101967 17.163731019964782 1 -1 -3
337 1 12.149941553384993 5.6884534545281324 14.674864836863172 -1 2 0
98 2 10.286198461296612 5.87373404771557 14.697339468417443 -1 3 -2
97 1 9.332041154387053 5.628770735111691 14.561807276107288 -1 3 -2
16 1 13.103149619889574 8.398000691877238 15.409406366682129 0 2 0
18 2 12.696557723983396 7.586590048041496 15.077766085498943 0 2 0
339 2 12.650611044282675 5.40325527100075 15.477417720347491 -1 2 0
383 2 10.143847204327693 7.446650419915668 17.658948239422354 1 2 0
49 1 15.888306242269785 8.39640381519905 13.786350197631709 -2 1 1
160 1 13.922643556641864 5.262548542344377 17.096093663921867 -2 -3 2
162 2 13.830769358657763 6.079891644221634 17.60859957934265 -2 -3 2
176 2 15.485531983145082 5.771748159217597 16.153220744071962 0 -4 -1
161 2 14.29479307467513 4.603953319275178 17.708186035744482 -2 -3 2
50 2 15.932249867381566 7.650569009133557 14.39791911396853 -2 1 1
549 2 17.247217487012954 7.140324538745262 16.74009376694951 2 2 -4
177 2 16.73966141966137 5.461739564369296 15.377891205840617 0 -4 -1
175 1 16.148159245473828 6.195044653173913 15.586580306822444 0 -4 -1
300 2 2.874064599330515 10.101171099380048 2.135001158387959 3 4 -2
319 1 1.2781318622250684 11.748993699362407 2.2251160364460723 1 -1 1
53 2 3.6148713458060318 11.139566600980908 4.404397859961597 4 1 1
298 1 3.5620253629551626 9.867372638076933 1.504991676419593 3 4 -2
320 2 0.9722274425139004 12.09110259367074 3.0968970852182087 1 -1 1
130 1 3.950952027119044 12.755285128633888 3.78469906921784 1 -2 2
509 2 0.7648159880035144 12.60501000781398 0.8757644049287672 -1 2 0
54 2 2.6271093029119075 10.01130141789958 4.707385903967189 4 1 1
52 1 3.554284765900553 10.174235156317494 4.501823037061101 4 1 1
299 2 3.709697751411792 10.669100542533702 0.952675641641257 3 4 -2
321 2 0.6963562783507679 10.943024594672451 2.142991881466392 1 -1 1
507 2 3.9389764084750225 12.689289515956496 0.6792739210582311 -4 -2 -1
390 2 5.019941845613887 9.883556947366273 2.4930511220208618 0 0 -1
388 1 6.009851599961157 9.869747850222787 2.5715354139423496 0 0 -1
389 2 6.2356185003328255 10.848034125191417 2.495235227847865 0 0 -1
352 1 6.369358092986712 12.444000059042319 2.502312167904848 0 5 1
353 2 7.266299951642095 12.41800697795435 2.8044741083376383 0 5 1
132 2 4.85681988113932 12.751591860996315 3.493764526805978 1 -2 2
93 2 6.758773563145333 9.876773505297695 4.187583995974628 0 -1 -1
63 2 6.548673308504445 9.23361816663215 1.2113555786229064 0 -2 0
147 2 11.540796316157024 10.878027918634967 1.1468996711061106 -1 0 0
341 2 9.13151480972731 9.731226480566022 4.566440815114408 -1 -2 1
143 2 9.752684941554149 12.32173773636443 2.802429726554755 0 3 0
145 1 10.750970631012411 11.4155151763393 1.2025037408362984 -1 0 0
142 1 9.021449085620345 12.931586422470463 2.860691281972618 0 3 0
340 1 10.005887558763042 9.217311030785831 4.614145544352392 -1 -2 1
13 1 13.240229035701876 10.451557341688913 1.5061221402612763 0 0 0
116 2 9.697716099935416 10.055512506826922 0.5769204841883309 1 -1 0
14 2 13.35427310777899 9.506802087644608 1.299636914916753 0 0 0
429 2 14.173641602326189 10.538748895502783 3.142853737372021 0 1 1
391 1 17.076423112337597 9.46175777024263 1.4624903676150585 2 -1 0
15 2 13.81534069041015 10.965179550567242 0.906982218546702 0 0 0
457 1 14.888466774520506 12.894146775111949 0.6373978915647236 -1 0 -1
427 1 14.255391981196118 10.112467502383256 4.015846172409027 0 1 1
265 1 17.186297684890082 12.959193162793452 4.31434071024877 -4 1 0
392 2 16.437924377381183 9.803600761971056 0.7833218456064789 2 -1 0
428 2 13.438781017665795 10.473800149046037 4.444361763190641 0 1 1
131 2 3.488879522043077 13.221604132281799 3.0450482911951493 1 -2 2
297 2 1.74137236336201 16.210937232868016 3.924355510990398 2 2 -1
4 1 0.7906426402140896 15.816457504113652 2.2997322158812232 1 0 2
468 2 2.401154425904968 14.855671575954993 1.5182333118640687 0 -1 -1
5 2 0.5363100550204423 16.643696648366753 1.8413116855442417 1 0 2
466 1 3.3252434909188215 14.346019007349959 1.4475171021375617 0 -1 -1
467 2 3.915445159054679 14.926169167855997 2.0514525160834 0 -1 -1
295 1 2.296433786330942 16.399591262439387 4.701132042869471 2 2 -1
296 2 2.735371777592147 17.21445751573235 4.574583892364188 2 2 -1
354 2 6.1879291580197835 13.21853920543153 1.8740862728280654 0 5 1
159 2 4.671855223801515 16.990472385173167 2.365949236266562 -1 3 0
157 1 5.145086922708198 16.13355661618203 2.6444987988784163 -1 3 0
158 2 5.064057888380535 16.177355946605385 3.5682623163341036 -1 3 0
444 2 6.234953754018328 15.388804145570449 1.6254208814154538 0 -2 -1
83 2 8.49581248937359 16.1836926847894 4.293628753174628 0 -3 2
82 1 8.303695411875328 17.152589389130352 4.346511562367091 0 -3 2
443 2 7.330873002714423 14.549006458402495 0.7343798868426041 0 -2 -1
442 1 6.386518930600488 14.637617433776775 0.9936541658216069 0 -2 -1
492 2 11.568205560401248 13.342188464497289 2.4053476838580767 -2 -3 0
96 2 9.876633182225957 16.043818173826025 0.9340384898427837 -1 -3 1
144 2 9.281281684877541 13.504189052883588 3.59637840604089 0 3 0
558 2 9.188802968427352 13.81988620789377 1.1066926544712898 2 -2 0
456 2 11.054120036545742 14.751228616908087 4.142917956320762 0 3 0
490 1 12.187082904801168 13.896686807598737 2.895344671737902 -2 -3 0
491 2 12.680976951718714 14.355652797101357 2.1638875477236583 -2 -3 0
454 1 10.13589813374936 14.780904168123307 4.4554692973615815 0 3 0
120 2 12.271312160306511 16.813572233866157 3.3883068479950342 -3 4 -1
355 1 13.08052044849469 15.020168689267122 0.5412660513521842 -1 0 -1
94 1 10.285032879394272 16.908056439964085 1.0128753168272808 -1 -3 1
95 2 10.802580022462525 17.08118406078482 1.8104453265473617 -1 -3 1
266 2 16.48793866448946 13.320330956071535 3.698723724118793 -4 1 0
6 2 17.216695869168102 15.40690735782853 2.299655742299163 0 0 2
60 2 15.268332216974636 13.852545000910967 2.0034313091997302 1 0 -1
203 2 14.35908227360489 16.521012358445702 4.293260505510718 1 1 0
58 1 15.67234865944993 14.393062377169743 2.7254531582258044 1 0 -1
59 2 14.976381484215349 14.964408063649056 3.218269168160636 1 0 -1
202 1 13.758414113202278 15.79571173340971 4.073670519911324 1 1 0
356 2 13.328893761693905 15.943089738351524 0.6777374733081569 -1 0 -1
419 2 3.785085065664973 9.699051382579865 7.765233863877788 1 0 1
420 2 3.9422234762690698 10.159018967793417 6.294494963666404 1 0 1
150 2 3.962342967838106 11.735169672324682 7.612382334406529 0 0 -1
148 1 4.097956663741732 12.747326947687396 7.985816562922541 0 0 -1
418 1 4.224833715558231 10.358961247175683 7.207769144923149 1 0 1
563 2 0.564781789145695 9.755305162430338 5.116270750022486 0 -1 0
562 1 1.320473451241436 9.141117621362003 5.0548482627884725 0 -1 0
91 1 7.4352313087459425 9.948331805439366 4.873123154910864 0 -1 -1
325 1 6.952161577379247 8.930260050709071 7.3290662227998915 0 1 -1
92 2 6.992453359785126 9.479186169504544 5.6630123822448315 0 -1 -1
289 1 6.6948320411014075 12.277646212840796 8.515324391701744 1 0 -2
326 2 7.659556355858416 9.20052548593011 7.963665963033206 0 1 -1
47 2 7.379347222738075 12.19306520610131 7.169910110348466 -1 0 0
48 2 7.850203476164433 11.52565341748616 5.8265208709739325 -1 0 0
46 1 7.9546563239213155 12.3152645894708 6.351393508709262 -1 0 0
327 2 6.146500170566521 9.066020189017463 7.791647813936414 0 1 -1
291 2 5.790724676738185 12.328471081226091 8.147071880590422 1 0 -2
552 2 9.57893927901392 11.987214899307023 7.320454197871123 1 -3 2
348 2 11.33466263228528 10.482850117355193 4.948902874357541 0 -1 0
219 2 9.504284920658751 10.130511544569224 8.454016351381023 3 1 3
346 1 12.11314096005545 10.996812396594486 5.13119337007456 0 -1 0
347 2 12.244245442185814 11.107654018224684 6.140518503070931 0 -1 0
550 1 10.073045511193135 11.692882585919682 8.132473760815477 1 -3 2
477 2 12.457117152247193 10.103597563286295 8.360250584255883 -1 1 2
475 1 12.685789436074607 11.046331507950018 8.293673035987766 -1 1 2
217 1 9.278049096444006 9.285669605120566 8.868206079361677 3 1 3
551 2 10.991026744170757 11.675326702472866 7.841061018472382 1 -3 2
519 2 15.61514525465574 10.481783609457626 5.041872020249407 -1 1 0
518 2 16.527236097072784 11.739312102059186 5.327473094784165 -1 1 0
476 2 13.662670905511987 11.178146033729464 8.187154855264078 -1 1 2
413 2 15.642732586887762 10.667061554007429 8.619160440656838 -1 0 -1
412 1 15.27334027629301 11.353837178324671 8.076614022644593 -1 0 -1
517 1 16.34679084212645 10.836745693344852 5.624736449025946 -1 1 0
414 2 15.617497921506232 11.128223870095798 7.18350136528406 -1 0 -1
149 2 4.253758677475825 13.383923005581792 7.253916192190439 0 0 -1
65 2 4.0830510031566405 13.951913114375476 5.078512342580108 0 -1 0
11 2 2.8919920437195996 16.385126105790324 7.382427067481806 -1 1 1
372 2 1.3943574285491573 15.2526142270747 8.612591876726714 2 3 -4
370 1 2.106436757250718 15.017165454945673 7.90382313946152 2 3 -4
371 2 2.4834174616269507 14.174238984265882 8.062757766941758 2 3 -4
64 1 4.087415585485745 14.63551986500101 5.81329240236864 0 -1 0
66 2 3.3698665188940256 15.28168992153748 5.640678028858477 0 -1 0
128 2 0.654344073197437 15.492394109567538 6.351169070651113 1 0 0
10 1 3.4660475247449734 17.176190273837477 7.252845287049173 -1 1 1
12 2 3.8845720312206096 17.349447170530183 8.133728852266772 -1 1 1
220 1 5.578899153127092 17.365118898816977 5.51699329154719 1 0 2
398 2 8.176502841323416 16.554123320820896 7.4571257948613265 -1 2 0
221 2 4.793799381931759 17.16235943905584 6.117678774662426 1 0 2
30 2 7.2734893600047545 13.537056314222935 5.393319681152879 1 0 1
29 2 6.182818098376138 14.6498469872255 5.5812187206058175 1 0 1
28 1 7.033388835004072 14.489203021682501 5.166402048802717 1 0 1
397 1 8.657289741881101 15.67299017930538 7.335152853103303 -1 2 0
399 2 8.023399205008607 15.235373808855059 6.666413578339228 -1 2 0
84 2 7.491738641487292 17.17110268073573 4.847458985465735 0 -3 2
363 2 8.19257613644503 14.89915220051832 8.653781618603208 -3 -1 -3
522 2 12.540478960547777 16.911018647503365 7.30994627219802 0 -1 0
521 2 11.345763222165342 15.984983490700925 7.401760477674057 0 -1 0
455 2 10.338826043490265 14.630782621522426 5.3955135892287105 0 3 0
534 2 10.68101467323199 13.949538015256163 7.616600556885597 3 1 -1
533 2 12.049207456767077 14.15545466077443 6.9018904093791535 3 1 -1
532 1 11.110483622221922 14.463125961696353 6.938582872938175 3 1 -1
520 1 11.587559015898243 16.94726146998595 7.361088492021351 0 -1 0
493 1 13.59444154810938 13.916625833164822 6.397319945388308 -3 -2 1
127 1 17.059085443961564 15.515074284062704 5.894225738386392 0 0 0
80 2 16.39447592478634 16.956793090066817 4.894486560621489 0 0 -1
495 2 14.373507540475519 13.832487030722234 7.006931776484968 -3 -2 1
284 2 14.35393743247057 16.757089148473227 8.117858530404376 -2 0 1
22 1 15.514089077764943 14.160459197316891 8.300347185644883 0 -2 1
494 2 13.588952093836548 13.140974196004874 5.852925435607234 -3 -2 1
24 2 15.908590718391915 13.313499034720182 8.423869608959194 0 -2 1
267 2 17.42624947702422 13.766039422323221 4.798621568521314 -4 1 0
204 2 13.595633585110697 15.293656731221041 4.881251163207988 1 1 0
129 2 16.483038849279403 15.112803923769265 6.535018161111138 0 0 0
23 2 16.232681230336418 14.75827159983617 8.719104163450776 0 -2 1
283 1 14.326815530735248 16.842771130299116 7.132468229460905 -2 0 1
436 1 3.3920093630224715 12.148378519917994 12.712377796825804 3 2 1
438 2 3.378225536124924 12.53873815237332 11.854880497744912 3 2 1
367 1 1.2198448804190503 10.035681897202261 10.631268183991994 2 -1 0
243 2 1.7333951844789313 12.091127515265528 12.896641733924765 1 0 -2