LAMMPS data file via write_data, version 3 Mar 2020, timestep = 0

2016 atoms
2 atom types

0.0000000000000000e+00 1.7963886514224413e+01 xlo xhi
-1.8051578853239150e+00 4.6801317862237724e+01 ylo yhi
0.0000000000000000e+00 1.9107629625205853e+01 zlo zhi
4.3645818266337864e-02 -6.6587599080890456e+00 -2.2236842296891268e-02 xy xz yz

Masses

1 16
2 2

Atoms # atomic

579 2 1.1670263244872931e+01 5.3287360754083091e+00 1.1517339524972021e+00 0 0 1
223 1 6.9215172809231582e+00 4.0492597734871163e+00 1.1718680322953899e-01 -2 0 -1
865 1 1.1071363981208249e+01 -8.5961381913051416e-01 2.3541395153723648e+00 -3 0 0
654 2 2.7800835862772679e+00 9.3133505006495856e+00 6.6543443564815288e+00 -1 0 0
394 1 9.6492297871488564e+00 8.1722628134604367e+00 4.2137520193553621e+00 -3 0 -3
578 2 5.4120073581799986e+00 6.0829598120593511e+00 1.8960169070781593e+01 0 0 0
929 2 1.6470058351776924e+01 1.4464555864647464e+00 9.6623806003699331e-01 0 0 0
471 2 1.0097423186036677e+01 -7.9268174261645363e-01 1.8429475208237715e+01 -6 0 -3
705 2 -2.0894394152018529e+00 5.3083356451449770e+00 1.7816673789604945e+01 -2 0 -1
302 2 1.3003812509301532e+01 7.1102147238972435e+00 2.1447454504157299e+00 0 0 0
299 2 -3.6251083003978128e+00 1.0088486326391761e+00 1.4573698541887582e+01 -2 0 -2
896 2 4.8977160747039039e-01 7.9874214747302830e+00 1.8585039099877290e+00 0 0 0
150 2 8.7034962103249711e+00 7.9461118496242023e+00 1.6785820705202440e+01 -4 0 -1
833 2 -4.8980658442371654e+00 8.2662231872047034e+00 1.4454104726676769e+01 -3 0 0
406 1 7.9287819090369283e-01 -1.4653073772737497e+00 1.0983246856095684e+01 -2 0 -2
621 2 -3.3909894940337826e+00 7.6588668777684106e+00 1.5721942526800431e+01 -3 0 -1
690 2 1.6814220005475772e+01 -3.9710926145607695e-01 2.4500778315193430e+00 -3 0 0
713 2 -1.6792317229496989e-01 -3.4776290391108011e-01 1.0350351310111510e+01 0 0 3
881 2 -1.1416883027831550e+00 1.0025712258053092e+00 6.2505465985466335e+00 -2 0 2
927 2 -4.0665879795142290e+00 -1.1465229389062688e+00 1.1888629366830546e+01 2 0 2
53 2 8.9029180343401073e+00 6.9431684358495236e+00 3.2031352397181956e+00 2 0 0
607 1 1.8219651680487980e+00 -8.2100821328948526e-01 2.5425308470204229e+00 -3 0 0
609 2 2.0837966628643221e+00 -1.5053014303643275e-01 3.1373047103091722e+00 -3 0 0
1583 2 -2.1642145278466529e+00 1.5442875993800622e+00 1.2907189033694639e+01 0 1 1
122 2 1.0855374999249014e+01 2.9622150053589209e+00 1.5118606344646537e+01 -2 0 -1
295 1 -3.2672385091691103e+00 4.6295893834282023e+00 1.8930722976321334e+01 2 0 2
992 2 1.4135192257611068e+01 -3.6270673846146995e-01 8.1005271816639670e+00 1 0 1
707 2 4.8757382152772699e+00 6.8966480882431807e+00 1.7107694682994200e+01 -1 0 -1
972 2 9.7610276529175923e+00 5.1174801941686505e+00 2.4757351817486044e+00 0 0 1
448 1 6.6475689352183345e+00 7.3138339579685585e+00 7.3227126887041569e+00 -1 0 1
244 1 8.4264646883843675e+00 6.5320273105360496e+00 1.2217579181413187e+01 -4 0 -4
762 2 2.4451252686595053e+00 -5.9293052289532233e-01 1.9079414195140540e+01 -3 0 1
712 1 -7.4778985581395618e-01 3.2741275456718810e-01 9.9476446144979462e+00 0 0 3
598 1 -2.2604273893704452e-02 -1.5453611138847889e-01 6.9807947014293612e+00 -3 0 1
827 2 6.5223580939622243e+00 7.4195939829875144e+00 8.8303092419294760e-01 1 0 1
301 1 1.3587037135713992e+01 7.7070218049603572e+00 2.6354618859148902e+00 0 0 0
149 2 9.6952883868655988e+00 7.3227896874983749e+00 1.7795005668525800e+01 -4 0 -1
270 2 1.0376329834668070e+00 8.1429511927694520e+00 1.2688124206427620e+01 2 0 -1
428 2 -2.8688372731355249e+00 1.0047355215081842e+01 1.6450929586555329e+01 0 0 -1
449 2 7.3193450593060119e+00 7.9992485854341044e+00 7.5201156651662489e+00 -1 0 1
524 2 1.1183838702634410e+00 2.9139727264156869e+00 9.6033614348758078e+00 -2 0 -4
585 2 3.5510568064014851e+00 4.7926381744929936e+00 1.2334235342529697e+01 -4 0 -4
523 1 1.9192165945337285e+00 2.6044879773519032e+00 1.0116201479327234e+01 -2 0 -4
658 1 7.2723489282999436e+00 3.7839861851219343e+00 1.8737342519382118e+01 -1 0 -2
206 2 8.8669630786980385e+00 2.2664938365469416e+00 1.3627042710983988e+01 3 0 0
96 2 1.5904907555118241e+01 4.4091168993457881e+00 4.2955575925931582e+00 -2 0 -1
441 2 -1.6229228780559151e+00 4.5728235701537763e+00 1.4469183282237116e+01 -2 0 -1
151 1 1.1150833101974310e+01 1.4672916107111700e+00 4.0032900923504631e+00 3 0 0
781 1 5.7972021112515897e+00 1.5101877495465068e+00 1.7344825510550896e-01 -2 0 -2
880 1 -1.9330900338778279e+00 1.4517185400593764e+00 6.0905343839421864e+00 -2 0 2
626 2 8.4363775914100732e+00 3.0490335956278951e+00 5.2740844541427923e-01 0 0 0
367 1 7.5396371416571402e+00 7.0993061540738207e+00 1.5542234598223361e+01 -2 0 -1
703 1 -1.3860415734727694e+00 5.6357956963379747e+00 1.7219624168724248e+01 -2 0 -1
382 1 1.2192072519626770e+01 2.7232266195532882e+00 1.6345364716930927e+01 -2 0 0
851 2 -9.8406296002523375e-01 1.0001197351619856e+01 9.4281720387500414e+00 1 0 1
547 1 8.1595198850173034e+00 4.6451633675158535e+00 1.4391653730174502e+01 -3 0 -4
54 2 8.3769561907136154e+00 6.3254961342598417e+00 1.8984414995084575e+00 2 0 0
87 2 1.1995905328955191e+01 6.6318332728432683e-01 1.2532638931312752e+01 1 0 -3
980 2 -3.3023344409823063e+00 7.7716236353400667e+00 9.8429848167667497e+00 -1 0 0
775 1 1.4235980177192095e+01 4.0049921687155532e-01 4.0773223985531111e+00 -2 0 2
392 2 4.4566194196230882e+00 6.9957724414161859e+00 1.3654037632773468e+01 -1 0 -1
652 1 3.4713202491604851e+00 8.6573461398460037e+00 6.9266078607612602e+00 -1 0 0
52 1 8.4206940557317171e+00 6.1614991504512835e+00 2.8627946594079532e+00 2 0 0
842 2 -1.3097821711137545e+00 -1.2153959375916532e+00 1.6354663829603329e+01 -5 0 -5
477 2 5.1309857604966318e+00 4.7863204896167586e+00 9.7602667825472960e+00 -1 0 2
500 2 1.6950070819091785e+00 3.6597454744926416e+00 1.2861837153419959e+01 1 0 0
950 2 -4.6095753883584596e+00 -8.9824545212211904e-01 1.7786230357454325e+01 -1 0 1
806 2 1.1299410765681783e+01 7.5007205186076238e+00 6.7475719392147315e+00 -4 0 1
789 2 3.7725606604202948e+00 8.3860341277956856e+00 1.8105071363477183e+01 -2 0 -1
810 2 1.1332638700937373e+01 2.5896217395440528e+00 8.3222015205753710e+00 -4 0 -1
930 2 1.5414447893005468e+01 1.3728012138949710e+00 2.2463244932290025e+00 0 0 0
702 2 5.1137823987149744e+00 1.2850972982584707e-01 1.5665064993762321e+01 -3 0 -3
501 2 1.9030322631627428e+00 2.2589100970217171e+00 1.3490695164234632e+01 1 0 0
625 1 9.1901447016600422e+00 2.6567669400160465e+00 1.0388479067226002e+00 0 0 0
427 1 -2.5575048400475597e+00 9.2803069383998604e+00 1.5866671789361064e+01 0 0 -1
101 2 4.3682851562295921e+00 4.9032448245693150e+00 1.4324586530552127e+01 -1 0 -1
384 2 -5.3588502943680378e+00 1.9779969819565979e+00 1.5896026429202491e+01 -1 0 0
245 2 9.2429631790661197e+00 7.0538481617947077e+00 1.2346342361081250e+01 -4 0 -4
622 1 1.0762349682001293e-02 1.4202963621178006e+00 1.6704006325252781e+01 -2 0 -2
624 2 -3.9822290165126972e-01 8.1232880338015612e-01 1.6090190081306783e+01 -2 0 -2
179 2 1.6325134755113623e+01 4.5115133827088085e+00 1.2947170466698830e+00 -3 0 0
1582 1 -3.3745650276071224e+00 7.4919792047264231e+00 1.1730422230815043e+01 1 0 0
463 1 8.5293819574990142e+00 9.4589285112484234e+00 7.4874587533907420e+00 2 0 0
368 2 7.4382786503729550e+00 7.9650044560214948e+00 1.5160961545813942e+01 -2 0 -1
268 1 1.8724098584071447e+00 8.5774055380583061e+00 1.2440862725532654e+01 2 0 -2
314 2 -1.0991649642640433e+00 9.0486417081068442e+00 1.3069993197281535e+01 -3 0 -3
49 1 1.2473249740922210e+01 1.1964423325207814e+00 1.0822742276713511e+01 -1 0 0
183 2 1.3170416727974832e+01 4.9217221146652275e+00 4.7024032946858565e+00 -1 0 0
457 1 1.3897096078484651e+01 -7.5869500578948235e-01 1.2345551271840076e-01 -3 0 -2
393 2 3.6481359314770057e+00 8.3724503705445628e+00 1.3109492955877224e+01 -1 0 -1
575 2 -3.6957185923628613e+00 6.5796406881388929e+00 1.1864706613026204e+01 1 0 0
465 2 8.8928237147194125e+00 1.0073299242896523e+01 8.1620745753162876e+00 2 0 0
135 2 1.2547039389000734e+00 4.4142026509647501e+00 6.3556085696900313e+00 1 0 -1
778 1 8.1775176944550534e+00 4.4635054812493591e-01 2.9963104391186643e+00 1 0 0
826 1 7.0780043452360415e+00 6.8061119105019543e+00 3.4116356695470718e-01 1 0 1
229 1 4.8085562158764041e+00 -4.3263703510579066e-01 5.0284457953068822e+00 0 0 -2
120 2 2.0182190981171333e+00 4.3524509999630911e-01 5.4856659244367094e+00 -2 0 -2
858 2 3.1902802906289467e+00 6.0074118089070812e+00 1.1311018577294962e+00 -1 0 -3
640 1 2.5093691564353433e+00 6.7719727991184424e+00 1.0486378928538219e+01 4 0 -1
753 2 -3.2975353365897484e+00 4.2796034497372695e+00 1.1239930002621312e+01 0 0 2
527 2 2.2696922899396297e+00 7.4965109472017772e+00 2.6560946413539792e+00 -2 0 0
119 2 2.6187957830892019e+00 1.4986065675615183e+00 4.7452056131611142e+00 -2 0 -2
525 2 2.1403790760138772e+00 3.3280571501531879e+00 1.0750911574443865e+01 -2 0 -4
495 2 4.3279845733986217e+00 8.5723791526801936e+00 8.9581626156431859e+00 -3 0 -2
971 2 1.0048026491502897e+01 3.8534121185772401e+00 1.6849258809054775e+00 0 0 1
561 2 8.0041464098321562e+00 5.0984862302815159e-01 7.1113305464086300e+00 -2 0 1
212 2 7.1126735077770054e+00 4.5580630297737539e+00 8.1963070499260091e+00 -5 0 -2
701 2 4.4320504295191405e+00 1.0098296080516658e+00 1.4672819842072778e+01 -3 0 -3
5 2 6.2379865976670494e+00 7.6936067136500217e+00 5.7718381232234304e+00 1 0 0
767 2 1.2895045662181445e+01 9.8964750572794475e+00 1.0493248451968888e+01 -4 0 -1
529 1 7.4422990180616928e+00 -1.0878962851412686e+00 3.4291315593453575e-01 -1 0 0
708 2 5.0268626416981110e+00 5.3629884593190420e+00 1.6667386866177495e+01 -1 0 -1
85 1 1.1955871357835186e+01 1.7721717944694659e-01 1.3342782096209422e+01 1 0 -3
674 2 8.9861084461562708e+00 9.2111089006800100e+00 5.4990176276854319e-01 0 0 -3
504 2 5.1647080066687270e+00 1.2088136965904379e+00 8.2725864526132806e+00 0 0 -1
856 1 3.3484454558063570e+00 6.4966782482732057e+00 1.9656133879135118e+00 -1 0 -3
627 2 9.8382412629024465e+00 2.2945523050359631e+00 3.8221531924323693e-01 0 0 0
111 2 1.6879754416275690e+00 1.9118018479918799e+00 1.6686340551511872e+01 1 0 -4
869 2 1.3302439682951404e+01 7.1519977392438072e+00 5.8176253304412198e+00 1 0 0
16 1 -7.9328778663975363e-02 3.8017013216959388e+00 1.5534385303388706e+01 0 0 1
178 1 1.6351576679909275e+01 4.1860889721433345e+00 3.1511638267229691e-01 -3 0 0
974 2 1.0050646473603308e+01 -1.2474179272067976e-01 1.6227753911330222e+01 -4 0 -2
118 1 1.9452480679128572e+00 8.2868726654908587e-01 4.5999673555790261e+00 -2 0 -2
289 1 7.6036899306297787e+00 9.9856468069355895e+00 4.6508639642801226e+00 0 0 3
623 2 -3.9738151148645873e-01 1.2266243950659845e+00 1.7598956898356224e+01 -2 0 -2
1668 2 6.7317838864130159e+00 4.5707639873646828e+00 1.8821191843991102e+01 -1 1 -2
644 2 1.3281070298647602e+01 6.4478542128977390e-01 5.3954392445629882e+00 -4 0 -3
310 1 9.6189422996279248e+00 1.0229449027396720e+01 1.2134521441806834e+01 0 0 -2
34 1 1.2678267631540965e+01 4.0067780598645664e+00 3.4112473268103289e+00 -2 0 0
239 2 2.8952875131534661e+00 4.7790032355057370e+00 1.5792352971913189e+01 0 0 0
716 2 7.0778103662728480e+00 4.7029515579142549e+00 5.6584478309003190e+00 1 0 2
717 2 7.4157380874856678e+00 5.5486569258688911e+00 4.3618489587758118e+00 1 0 2
240 2 3.2799429566278047e+00 3.2966503431199543e+00 1.6131133430009772e+01 0 0 0
776 2 1.5034962632269561e+01 4.1093570547369485e-01 4.6377590824257071e+00 -2 0 2
17 2 3.5642706140281710e-01 3.3106548269792686e+00 1.4772436884777658e+01 0 0 1
779 2 7.9265651068258816e+00 1.1266955290542193e+00 3.6119633678654486e+00 1 0 0
760 1 3.2760683547215601e+00 -2.3585589236536841e-01 1.8779422090287422e+01 -3 0 1
645 2 1.2731775937825603e+01 1.3607260544855277e+00 6.7504382595851311e+00 -4 0 -3
613 1 9.1548734247391206e+00 3.1200732115053951e+00 5.0551711686784175e+00 -2 0 0
246 2 8.3356075732268504e+00 6.1902283450200164e+00 1.3081715760405748e+01 -4 0 -4
238 1 3.6862548606100676e+00 4.1570478337714505e+00 1.5812884284014732e+01 0 0 0
991 1 1.3997234642283065e+01 -1.3912777713491995e+00 8.2257461251830364e+00 1 0 1
715 1 6.7091113195429877e+00 4.9499571398343871e+00 4.7643927129026080e+00 1 0 2
115 1 -1.1820903271989236e+00 2.4882609725802043e+00 1.1860844813797664e+01 -4 0 -5
426 2 1.0179365086725751e+01 4.5563432852615557e+00 6.1844843339659734e+00 -2 0 1
494 2 5.5052533722455763e+00 8.3258625755181992e+00 1.0073061553531160e+01 -3 0 -2
1584 2 -2.3992966046637032e+00 7.4364536572157647e+00 1.1958171088209124e+01 1 0 0
737 2 1.2317505664494073e+01 8.9426359955909867e+00 2.8483213296422867e+00 -1 0 1
933 2 -1.3174546955734772e+00 -4.9966723422934622e-02 1.4334633712191714e+01 -2 0 -1
857 2 4.1532546879086585e+00 7.0923047463950599e+00 1.8581638426695299e+00 -1 0 -3
868 1 1.2908991217342534e+01 7.8363304570027257e+00 6.3675233062400860e+00 1 0 0
981 2 1.3621947602577194e+01 7.5865299056105542e+00 8.7823104486168564e+00 -2 0 0
18 2 -2.0135549753281179e-01 3.0347645431594286e+00 1.6130873934951744e+01 0 0 1
521 2 6.7793899337453238e+00 -6.1973113882293296e-01 8.9289282420099845e+00 -5 0 -2
502 1 5.0102060703171052e+00 2.5179433464263479e-01 8.6678748137080426e+00 0 0 -1
785 2 4.4680870182022350e+00 3.9004449940093204e+00 4.6565154015068764e+00 -3 0 -2
870 2 1.2889750467340390e+01 8.6800996929017451e+00 5.9290736376157165e+00 1 0 0
211 1 7.4163970300492075e+00 4.1434316943663250e+00 7.4092727643949825e+00 -5 0 -2
387 2 6.3330698424909593e-01 1.9649785836004092e+00 3.8103842089368150e+00 0 0 -2
1994 2 8.9739802919039224e-01 9.0655933496353249e+00 1.6816302865249948e+01 -2 0 -3
643 1 1.2579252902135050e+01 6.2761176372018301e-01 6.1127212302062564e+00 -4 0 -3
938 2 1.5388704912130278e+01 9.4467252701552429e+00 9.9197714646487534e-01 1 0 1
459 2 1.4795127851591593e+01 -1.0106310648615451e+00 4.0838566405280352e-01 -3 0 -2
538 1 4.6409128754139468e+00 1.1327482580055190e+00 2.7962790625437046e+00 -4 0 -3
116 2 -1.0893199467687764e+00 1.8322242912938087e+00 1.1170975945645733e+01 -4 0 -5
224 2 -4.5471724065189711e-01 3.6473034140567524e+00 1.8672583042889865e+01 -2 0 -2
435 2 3.2940639870658511e-01 9.7297608078804174e+00 3.3908364814578351e-01 -1 0 1
997 1 1.0724422576712479e+01 1.0081080019779472e+01 1.5757924598021525e+01 -3 0 2
117 2 -2.8760139775345639e-01 2.5593804010682089e+00 1.2252998764264690e+01 -4 0 -5
931 1 -7.5273760695415159e-01 -3.8706000546995756e-01 1.5112855239208182e+01 -2 0 -1
714 2 -2.8724574616762322e-01 6.2655947325844608e-01 9.1813672699948796e+00 0 0 3
385 1 4.6728609205023908e-01 2.6111390682993880e+00 3.1008609813640988e+00 0 0 -2
993 2 1.3073687947001766e+01 -1.4884879474727308e+00 8.5259452808307081e+00 1 0 1
961 1 1.4828187791824643e+00 -1.0798131599595298e+00 1.4281053833965457e+01 -3 0 -1
42 2 2.8034937384732990e+00 5.8776793369277902e+00 6.0572233160812896e+00 -2 0 3
608 2 1.6702986496763033e+00 -4.2202585860179109e-01 1.6399625781104854e+00 -3 0 0
876 2 -7.0783756023944244e-01 6.6749936332016659e+00 1.3325443189227370e+01 -2 0 1
769 1 -8.1260738104237884e-01 5.3276125763242037e+00 1.0720250040008436e+01 1 0 -3
1002 2 9.2133748766276486e+00 2.1193108649860863e+00 8.2195755280807905e+00 -1 0 1
4 1 5.8565322989457842e+00 7.9904401061034349e+00 4.8966793475987966e+00 1 0 0
765 2 1.1588997334030864e+01 8.0356254689661171e+00 1.2767711399862732e+01 -4 0 -3
41 2 1.5652729402120262e+00 6.4610166926529438e+00 6.7111040138249525e+00 -2 0 3
937 1 1.4734463269423403e+01 9.0135104590954924e+00 4.6917782232218636e-01 1 0 2
812 2 1.4447697261782976e+01 4.3270402488868562e+00 8.9619731856356744e+00 -2 0 -1
932 2 1.4298165450551892e-01 -6.2349336861928606e-01 1.4910797583961196e+01 -2 0 -1
807 2 9.8684621916875876e+00 8.1902262723592667e+00 6.9685509140225026e+00 -4 0 1
213 2 8.3541514145153215e+00 4.4231769415409055e+00 7.2972588665675575e+00 -5 0 -2
875 2 -6.3091189951884230e-01 6.5942987961635797e+00 1.1800655438870377e+01 -2 0 1
763 1 1.0919598901194970e+01 7.7406095774269961e+00 1.2145646376156147e+01 -4 0 -3
338 2 3.2753857206891803e+00 2.0790423772713127e+00 2.1730020584634380e+00 -1 0 -1
389 2 1.2156682723689729e+01 1.8135656687647601e+00 2.2176662987083380e+00 -1 0 0
969 2 1.9019168819866081e+00 1.1295597790193024e+00 5.0574430825258199e-01 -1 0 1
545 2 3.3631788977031016e+00 7.4184846016145434e-01 1.2623538782133474e+01 2 0 1
386 2 -2.4256845996242526e-01 2.1935593434433649e+00 2.6444905380234620e+00 0 0 -2
829 1 5.4650374853126120e+00 8.0203646902046479e+00 2.1775169351953161e+00 -3 0 0
40 1 2.2975747358077090e+00 5.8842143803412252e+00 6.8842807351724629e+00 -2 0 3
786 2 4.3717152836479656e+00 2.7904064628213385e+00 5.8464879581266622e+00 -3 0 -2
233 2 1.1635932870119863e+01 7.7985595177252058e+00 9.3124061887152561e+00 -2 0 0
985 1 1.5357542686227692e+00 9.7170900797064093e+00 1.7035404550071750e+01 -2 0 -3
784 1 4.0051514214968149e+00 3.0302927125540995e+00 4.9059883484598821e+00 -3 0 -2
967 1 -5.1549328694500431e+00 3.7435336447292933e-01 1.9055689681649248e+01 -1 0 0
553 1 6.9020220918200881e+00 2.7945644965299827e+00 1.6018583960053316e+01 -5 0 -2
681 2 1.6759749880828242e+01 7.5521080202437574e+00 2.5821497482698432e+00 -3 0 -2
649 1 5.1568433395945625e+00 2.4832877549742278e+00 7.4352711922968968e+00 -4 0 0
650 2 4.5800335087599660e+00 3.2081181313819584e+00 7.9245547792391520e+00 -4 0 0
51 2 1.1952119987722341e+01 6.4247029199102412e-01 1.0190940969519268e+01 -1 0 0
951 2 -3.3171970813008609e+00 -1.4404030606751155e+00 1.7065245340855974e+01 -1 0 1
945 2 6.8424031470601907e+00 3.5045480334461754e+00 1.9656550924631757e+00 0 0 3
673 1 9.3859461575697036e+00 8.3170793935712002e+00 5.0050938288063584e-01 0 0 -3
939 2 8.5003233501713158e+00 8.7285106740119627e+00 1.8659363930294525e+01 1 0 0
397 1 -1.4982912709323046e+00 5.7776287420603989e+00 7.8986361098056115e+00 3 0 0
127 1 3.4520556419995163e-01 7.3098377557635335e+00 5.3917251396206209e+00 -1 0 -1
128 2 9.0862200720245978e-01 7.4324877691020728e+00 4.6067624830083709e+00 -1 0 -1
1407 2 -1.4510895958246386e+00 5.5860152986267835e+00 6.9361821835360002e+00 3 0 0
86 2 1.2399080736860707e+01 5.3525692454288665e-01 1.4142020644926639e+01 1 0 -3
928 1 1.6327081430527915e+01 1.3451882832868756e+00 1.9569884984788450e+00 0 0 0
925 1 -3.5328321484839136e+00 -4.9596013396606509e-01 1.1383787313980321e+01 2 0 2
152 2 1.1670465935357978e+01 1.2151749815065926e+00 4.7978124681537260e+00 3 0 0
439 1 -1.9324556092520413e+00 5.4098113564754424e+00 1.4051543037625962e+01 -2 0 -2
350 2 9.7937992589016432e+00 1.6259886983924527e+00 1.7809328542622705e+01 2 0 3
296 2 -3.9884649262849301e+00 4.7419341143750016e+00 1.8341054671277362e+01 2 0 2
636 2 -5.8174071589007070e-01 8.8610019855627353e+00 6.7104863265809529e+00 1 0 -2
783 2 6.6231471997964011e+00 1.1311165402240153e+00 5.2914504706789345e-01 -2 0 -2
148 1 9.2461943448973933e+00 8.1665463613987530e+00 1.7565744779758841e+01 -4 0 -1
513 2 7.7831403124623355e+00 -1.0313044726221015e+00 1.5711887992430141e+01 1 0 0
830 2 5.7831128725512215e+00 7.7847731374805225e+00 3.0808644020844209e+00 -3 0 0
160 1 6.3148912887420927e-01 7.6406949872872172e+00 8.4651954449704405e+00 1 0 -5
129 2 -5.1668241035468077e-01 7.0219342811590746e+00 5.0551866425261460e+00 -1 0 -1
390 2 1.2957628413386280e+01 2.4322193557637100e+00 1.0110115161834219e+00 -1 0 0
173 2 1.1409560283719051e+01 2.9561392663445094e+00 1.1276921674331460e+01 -1 0 -2
276 2 7.9401343516085703e+00 1.6597902947874683e+00 1.6494358723385030e+01 2 0 -1
671 2 2.8451876682915866e+00 -1.4321412208341164e+00 7.2365517073395376e+00 -3 0 -1
369 2 6.6297379607883586e+00 6.8492695634094751e+00 1.5954442664953072e+01 -2 0 -1
462 2 1.3055036841759311e+01 5.1923942251760851e+00 7.2101985802003625e+00 -4 0 -2
651 2 5.9238467634738079e+00 3.0035179491682609e+00 7.2015223485580684e+00 -5 0 0
828 2 2.6176927887500412e-01 6.8872038915073794e+00 1.8502759818945538e+01 1 0 0
611 2 -2.3130243319257255e+00 7.9046485040839087e-01 9.1954281564235387e+00 0 0 2
36 2 1.2635603159595926e+01 3.1440944037974354e+00 3.7639119507683811e+00 -2 0 0
750 2 6.9698434046026145e+00 7.6293550564566068e+00 1.1639000577127680e+01 -3 0 1
749 2 5.7964535556940930e+00 8.3264508744731494e+00 1.2316515406247195e+01 -3 0 1
102 2 5.3532056955541831e+00 4.5860863217313010e+00 1.3131969162804708e+01 -1 0 -1
497 2 2.9337182666495574e+00 3.9007333180944039e+00 9.2069811741409691e+00 0 0 1
498 2 3.2718503408626054e+00 5.0325026230982601e+00 8.1799189169271482e+00 0 0 1
395 2 1.0419743998853500e+01 8.6181099684243385e+00 3.7517867180321907e+00 -3 0 -3
313 1 -1.1220685756377660e+00 1.0013638140553503e+01 1.3358669492664310e+01 -3 0 -3
349 1 1.0499013812183286e+01 1.9817232894950436e+00 1.8364208619739742e+01 2 0 3
679 1 1.6351416298056854e+01 7.4355796606002116e+00 3.4725424789830579e+00 -3 0 -2
398 2 -2.2996667763028285e+00 6.3323426766577207e+00 7.9872374717579859e+00 3 0 0
231 2 4.0977457705614979e+00 -5.1347488250547824e-01 5.7195927027951390e+00 0 0 -2
520 1 7.4371911674641069e+00 -1.2048016298224049e+00 8.4921150942461754e+00 -5 0 -2
185 2 4.4505164746258377e+00 -3.4399342142275269e-01 1.5126116331357076e+00 -4 0 -6
943 1 6.7537930032015892e+00 2.9870221162784709e+00 2.7846411128305535e+00 0 0 3
766 1 1.3504507437917352e+01 9.9298491588219377e+00 1.1303912486907223e+01 -4 0 -1
725 2 1.2680019636365513e+01 -1.4832452506632010e+00 2.8115341051003120e+00 1 0 1
220 1 1.6887395355354355e+00 5.8766647324363630e+00 1.5837054330210139e+01 -2 0 -3
172 1 1.1235255171733773e+01 3.7126719981985516e+00 1.1805460027873986e+01 -1 0 -2
298 1 -4.4090279746429699e+00 9.1300045984361988e-01 1.5205702580432085e+01 -2 0 -2
680 2 1.5545951859194448e+01 7.9583556367059245e+00 3.4805430888380569e+00 -3 0 -2
919 1 1.0901559931408498e+01 -7.9655505533529025e-01 9.7979113886984184e+00 0 0 -2
312 2 9.9702385719057105e+00 9.2739570631489201e+00 1.2022962506504255e+01 0 0 -2
944 2 6.4858399862427039e+00 3.6515386549170090e+00 3.4165866570663037e+00 0 0 3
100 1 4.6570541452277308e+00 5.2262184000631926e+00 1.3471833270429611e+01 -1 0 -1
1667 2 6.9692063187003805e+00 3.3655759196710040e+00 1.7906494983169406e+01 -1 1 -2
352 1 9.3026495391983381e+00 4.9332451254548042e+00 9.8586854643508168e+00 -1 0 0
174 2 1.0566483487181387e+01 4.2651662450698797e+00 1.1340144385800997e+01 -1 0 -2
184 1 4.6846290257080092e+00 -9.2444993754810378e-01 7.7584744371220415e-01 -4 0 -6
559 1 8.7642646462636655e+00 1.0469279337249962e+00 6.8977508872134665e+00 -2 0 1
635 2 -1.2158551267691129e+00 1.0131134014093206e+01 7.3417244582131653e+00 1 0 -2
460 1 1.3019989044779434e+01 5.0286302452408780e+00 8.1593689659477757e+00 -4 0 -2
321 2 1.2731502583914878e+01 -1.5778326360916040e+00 1.3347580624727144e+01 -4 0 -3
998 2 1.0275810580133619e+01 9.4239259422225601e+00 1.6402238138627510e+01 -3 0 2
764 2 1.1425118322458866e+01 7.3422358310734612e+00 1.1455661895127932e+01 -4 0 -3
539 2 5.3748294265482146e+00 1.7578001767877209e+00 2.6648665126626283e+00 -4 0 -3
672 2 3.6554997643377147e+00 -1.3334758266511648e-01 7.6696430040922507e+00 -3 0 -1
528 2 1.9831521318902099e+00 8.9433949310060896e+00 3.2320753944422629e+00 -2 0 -1
109 1 2.6418929973449474e+00 1.7023854039926722e+00 1.6747792720144272e+01 1 0 -4
615 2 8.9528399807253294e+00 2.5184202635528772e+00 5.7766995288707994e+00 -2 0 0
48 2 1.2345185153473361e+01 1.0189026522256484e+01 4.6827611625621079e+00 -3 0 0
461 2 1.2694465863457003e+01 4.1097927917682551e+00 8.1943181515102044e+00 -4 0 -2
977 2 4.7132717950379526e+00 -9.8137083984946949e-01 1.7739250620919041e+01 -3 0 -1
963 2 2.1080228143942552e+00 -1.4889565229732882e+00 1.4863503120278928e+01 -3 0 -1
667 1 7.8949245799783219e+00 9.5720031081495343e+00 1.4460923412623588e+01 -3 0 -3
182 2 1.4533999174974779e+01 5.2841796192246528e+00 5.3424176659737244e+00 -1 0 0
35 2 1.1784921455276267e+01 4.2361685300779968e+00 3.1283630308017645e+00 -2 0 0
832 1 1.2353688918724636e+01 8.7883111327175847e+00 1.3967979683048524e+01 -4 0 0
834 2 1.1801384808506238e+01 9.1845506884447090e+00 1.4728102685362021e+01 -4 0 0
475 1 5.9259313628296466e+00 5.2415195469854163e+00 9.9354259063237134e+00 -1 0 2
68 2 1.1621911892015744e+01 5.8101307801521793e+00 1.7864515874976387e+01 -4 0 -3
526 1 1.5548306933507039e+00 8.0678597630744289e+00 3.0462398335960756e+00 -2 0 0
133 1 7.8071709984795912e-01 3.7404296452479757e+00 5.7345498765208847e+00 1 0 -1
610 1 -2.9836686163123183e+00 1.1466956202238716e+00 8.6115888014165911e+00 0 0 2
675 2 8.6276840752817563e+00 7.7576908286328781e+00 2.6437844633028901e-01 0 0 -3
761 2 1.0442189347540692e+01 -1.1871948402862920e-01 5.1542462815749590e-01 -3 0 2
300 2 -4.2155636725552519e+00 1.0409635583209664e-01 1.5757866225650474e+01 -2 0 -2
464 2 8.3870477831515977e+00 1.0061487463092165e+01 6.7765105348592316e+00 2 0 0
782 2 5.1807353685135773e+00 7.5581628151093883e-01 1.5412511238903526e-01 -2 0 -2
469 1 1.6706953362068358e+01 -9.2826541866901513e-01 2.6724381769849259e-01 -6 0 -2
429 2 -2.5391512562267180e+00 9.6946426273217714e+00 1.4935374741980819e+01 0 0 -1
728 2 7.4436002938237102e+00 4.2214133678631018e+00 1.2666036603012760e+01 0 0 1
113 2 9.0284628424861815e+00 8.1311271189214995e-03 1.3780876273322157e+01 -2 0 -1
987 2 1.3598282747958050e+00 9.9500278949264072e+00 1.7912739546827844e+01 -2 0 -3
572 2 8.4229268967976267e+00 -1.0448805588753396e+00 3.9275816544107567e+00 1 0 4
222 2 1.0788990296944343e+00 5.1335129042552605e+00 1.5943247173497525e+01 -2 0 -3
540 2 4.8072044345442242e+00 6.8616794064790021e-01 3.6688015172307979e+00 -4 0 -3
67 1 1.0930076730439019e+01 6.2396102181338868e+00 1.8442006541361852e+01 -4 0 -3
727 1 6.6099463297358918e+00 3.8885705291108250e+00 1.2254404036497860e+01 0 0 1
114 2 1.0485987296005625e+01 -3.6824511313676189e-01 1.3802773359378902e+01 -2 0 -1
425 2 9.8947239940465277e+00 5.8067359700923831e+00 6.9925939111090933e+00 -2 0 1
544 1 3.0223025996336341e+00 9.9189931507482676e-01 1.3477839417394820e+01 2 0 1
21 2 6.8297158036037180e+00 9.7571146034878993e+00 1.8719090551100113e+01 -3 0 -4
1001 2 9.5214775381866659e+00 3.4389391425008826e+00 9.0395057298592096e+00 -1 0 1
496 1 3.6495330964912602e+00 4.4216840598270517e+00 8.7710514907502208e+00 0 0 1
686 2 2.4515434046065265e+00 -4.6440667513904876e-01 1.0862336726301391e+01 -3 0 0
337 1 2.6280653337068340e+00 2.5700054263943137e+00 1.5677633961078290e+00 -1 0 -1
549 2 9.0494299174857105e+00 4.2419149601508312e+00 1.4558422039696545e+01 -3 0 -4
221 2 1.0738406138330285e+00 6.5985495808178545e+00 1.5867453344853496e+01 -2 0 -3
548 2 8.0054229458534039e+00 5.4861425699208377e+00 1.4856214667631557e+01 -3 0 -4
583 1 2.8063740260778847e+00 4.4092131048195027e+00 1.1828925206345616e+01 -4 0 -4
584 2 2.5426618685961424e+00 5.1135902139273615e+00 1.1214778398891523e+01 -4 0 -4
641 2 2.3503911057357629e+00 7.5750354261472754e+00 1.0998161145816990e+01 4 0 -1
110 2 2.8223346334251342e+00 9.5159224589544866e-01 1.7330447277979314e+01 1 0 -4
687 2 2.6603816077783851e+00 1.0938258543558002e+00 1.0477172609657517e+01 -3 0 0
232 1 1.2016075301975896e+01 7.0112637729370011e+00 9.7055395491636123e+00 -2 0 0
207 2 7.3696743738147648e+00 2.0589387010922384e+00 1.3007333590104151e+01 3 0 0
808 1 1.2305816285900040e+01 2.5069741613111542e+00 8.2045438434257747e+00 -4 0 -1
777 2 1.4167795414982837e+01 -5.6253798975819524e-01 3.8304403570405521e+00 -2 0 2
577 1 1.2277274133062054e+01 6.0256787412880906e+00 8.3806168559772376e-01 0 0 1
889 1 1.0694240411097599e+01 -1.1910756214528349e+00 7.1897294657759039e+00 -1 0 0
1000 1 9.8263912913042333e+00 2.4757252621757706e+00 8.9244474925757551e+00 -1 0 1
294 2 -2.1223318963368909e-01 3.1132245484496064e+00 7.6335479722763848e+00 1 0 -3
850 1 -7.8883336015961536e-02 9.8346113725254458e+00 9.7425357622063231e+00 1 0 1
6 2 4.9931267329195199e+00 8.3721836977715096e+00 5.1066143828311334e+00 1 0 0
176 2 5.0754241307561889e+00 -5.5896147713677991e-01 1.3726782425558365e+01 -5 0 1
813 2 -2.8987662474198950e+00 2.9218070322178944e+00 9.3808970824516713e+00 -1 0 -1
912 2 1.5295252819513152e+01 6.1017583723221875e+00 2.9239188916630794e+00 -2 0 1
274 1 8.4668250031814942e+00 9.1433269673535733e-01 1.6923197324607603e+01 2 0 -1
845 2 7.8519498267415111e+00 -8.2466474239820242e-01 1.1483949852806425e+01 1 0 1
771 2 -1.1783388951670561e+00 5.3752144166890643e+00 9.8246968655122497e+00 1 0 -3
161 2 1.1153335438838545e+00 7.0389500867392076e+00 9.0464098247558340e+00 1 0 -5
809 2 1.2597815280182077e+01 2.0577870701181156e+00 9.0085431620652781e+00 -4 0 -1
291 2 6.9584105086014310e+00 9.3365324556914970e+00 4.9731970224512017e+00 0 0 3
94 1 1.6061815071674896e+01 4.4696145662088105e+00 5.2614428075980344e+00 -2 0 -1
225 2 3.2354415723609797e-01 4.9587315312914209e+00 1.9048323099282769e+01 -2 0 -2
770 2 -1.0005502145637863e+00 4.4542578340611083e+00 1.1052701535644438e+01 1 0 -3
123 2 1.0880992322914008e+01 3.3571641329460329e+00 1.3501373866372468e+01 -2 0 -1
440 2 -2.4907221565001221e+00 5.1217363181378746e+00 1.3292705188429030e+01 -2 0 -2
383 2 1.1750426549135247e+01 2.3917373798974042e+00 1.7205461855165851e+01 -2 0 0
890 2 1.1489233575238284e+01 -6.2241704745691595e-01 6.8608591578777762e+00 -1 0 0
499 1 1.2332242537882321e+00 2.9328594682022269e+00 1.3310773695469850e+01 1 0 1
910 1 1.5245829091481626e+01 5.0892666351681140e+00 2.7245232041666760e+00 -2 0 1
546 2 2.4956831955277927e+00 1.6091871523064349e-01 1.3620667955867477e+01 2 0 1
736 1 1.1779286468199203e+01 9.7282932035235490e+00 3.2168316963900234e+00 -1 0 1
729 2 6.4718327915154408e+00 4.4120125360082856e+00 1.1435954515559494e+01 0 0 1
612 2 -2.6001585231687825e+00 1.2809456418529432e+00 7.7511441291434000e+00 0 0 1
787 1 4.4545403178983900e+00 8.3598137987250549e+00 1.7429548030004195e+01 -2 0 -1
121 1 1.0322168109320808e+01 3.0625786149557745e+00 1.4269073497259031e+01 -2 0 -1
911 2 1.4283963149048279e+01 5.0416389919246178e+00 2.7806261156748842e+00 -2 0 1
424 1 9.9277506860566191e+00 4.8602701517750866e+00 7.0872403885382216e+00 -2 0 1
811 1 -2.9260296955559948e+00 3.8443940128155978e+00 9.6242659269607422e+00 -1 0 -1