LAMMPS data file via write_data, version 3 Mar 2020, timestep = 0

2016 atoms
2 atom types

0.0000000000000000e+00 1.7978287213476069e+01 xlo xhi
-1.9533391613936537e+00 4.6949499138309633e+01 ylo yhi
0.0000000000000000e+00 1.9119974688586229e+01 zlo zhi
4.6371113391458510e-02 -6.6858241742678821e+00 -2.0933712267158455e-02 xy xz yz

Masses

1 16
2 2

Atoms # atomic

579 2 2.3931088481544869e+00 4.3949688519868442e+00 1.7073881594828059e+01 0 0 0
223 1 -7.8818110711770117e-01 4.4461366620823588e+00 1.7147296896121055e+01 -2 0 -2
995 2 6.1295058457430027e+00 2.3748380654469345e+00 5.6614807075349507e+00 3 0 1
654 2 -1.0853116616198371e+00 7.3547176567939374e+00 3.9197026664825780e+00 -1 0 0
394 1 1.0312069747250330e+01 5.4861005118016548e+00 3.1433468333692023e+00 -3 0 -3
578 2 1.6757059158229710e+00 5.1549767569477378e+00 1.5906925831155554e+01 0 0 0
929 2 1.5152849245559617e+01 4.4056172170698611e+00 7.8151669477366674e+00 0 0 0
530 2 8.0493810150017655e+00 -3.1163348183710338e-01 1.9682603893820403e+00 -1 0 0
705 2 -2.6728377706938473e+00 4.5494945574179093e+00 1.4073461905351751e+01 -2 0 -1
302 2 8.5620008113841628e+00 4.0697936346637960e+00 8.3506706736434133e-01 0 0 0
299 2 2.0114640536795925e+00 1.7435556758369462e+00 1.1729028846243919e+00 -2 0 -1
896 2 1.0187888848964862e+01 7.2575117195000285e+00 1.5600234893312392e+01 -1 0 -1
150 2 -4.7564947870118450e+00 7.7904116052288899e+00 1.4639041940371225e+01 -3 0 -1
406 1 5.7843253052474175e-01 7.2882443418683707e-01 1.1654902394461558e+01 -2 0 -2
621 2 -1.0885401215420387e-01 1.0038167771526386e+01 1.8020394904575245e+01 -3 0 -1
596 2 2.1566601722058945e+00 7.3582260095079235e+00 4.9790148406075732e+00 3 0 -2
875 2 1.0663582138786147e+01 9.4057533624088325e+00 1.1427123816934106e+01 -3 0 1
952 1 1.3365962880098797e+01 6.3280292620526204e+00 1.7447438839472862e+00 -1 0 1
881 2 1.0812824056207855e+01 2.2329761018993404e+00 8.9573468036014674e+00 -3 0 2
319 1 1.2183111966559540e+01 -1.0302308650850716e+00 1.4591638106959520e+01 -4 0 -3
53 2 1.3512848710865446e+01 8.5341862939584701e-01 4.4740941365638998e+00 2 0 0
232 1 7.4769454208784065e+00 8.8810069767479600e+00 6.1461286896271501e+00 -2 0 0
609 2 -2.5100184372183993e+00 1.3725526933272891e+00 1.7480896859882456e+01 -3 0 -1
1583 2 -2.3103203419176706e+00 4.1121110372997505e-01 1.3329701454348781e+01 0 1 1
122 2 1.0149841858857195e+01 3.2462543517189459e+00 1.6422926915066132e+01 -2 0 -1
295 1 8.1020811330262255e-01 9.1233327602294381e+00 1.9088032075457635e+00 2 0 3
407 2 4.7261680371417203e-01 4.4447287577795214e-01 1.2604513372197360e+01 -2 0 -2
707 2 4.8658107123682948e+00 7.1836881269599662e+00 1.2881994941039620e+01 -1 0 -1
972 2 2.1375597898381562e+00 7.2561636280709934e+00 1.8707197094268562e+01 0 0 0
448 1 6.6332466205990883e+00 4.4528347496827116e+00 8.0522651710576074e+00 -1 0 1
244 1 1.1400327930116987e+01 6.3672932743313151e+00 1.2130298028110772e+01 -4 0 -4
175 1 5.4146736139292271e+00 -1.9470294376112109e+00 1.2971870698708731e+01 -5 0 1
687 2 1.3506483738571937e+00 -4.7021140127352701e-01 1.0417094777709114e+01 -3 0 0
531 2 9.3695568820748463e+00 -1.7944792951246114e-01 2.7758111176548730e+00 -1 0 0
712 1 -1.7776646285110700e+00 -1.4294403297408382e+00 1.2050066910162903e+01 0 0 3
301 1 8.3138533047201673e+00 4.7655157351094477e+00 1.5170459270010819e+00 0 0 0
149 2 1.2631650627467863e+01 7.1303221313552783e+00 1.3274641316000872e+01 -4 0 -1
270 2 -2.1418457172884233e+00 8.6235504166348598e+00 1.1910038631442605e+01 2 0 -1
755 2 7.0929926664791472e+00 9.6759426292457320e+00 4.4955817362475070e+00 0 0 2
449 2 5.7565237237282529e+00 4.8140981128312053e+00 8.4495663225444044e+00 -1 0 1
524 2 3.4505903309614121e+00 5.4473738540342147e+00 1.1929564242456536e+01 -2 0 -4
585 2 1.2577971095154195e+01 8.4522326730898172e+00 9.9901789750434151e+00 -5 0 -4
523 1 4.2511123761838459e+00 5.1719211707382913e+00 1.2370828331342398e+01 -2 0 -4
658 1 5.2833828797168954e+00 2.4163794242789836e+00 1.5504785010748058e+01 -1 0 -2
206 2 3.7362666461347587e+00 1.3930329600181537e+00 1.3052552733151217e+01 3 0 0
463 1 3.4055845888488649e+00 9.4242597399879440e+00 8.6353905824615964e+00 2 0 0
441 2 -9.5334580311082995e-02 7.7905976483165151e+00 1.2902718007321369e+01 -2 0 -1
590 2 -6.8002075774725501e-02 9.3512446370497297e+00 1.1259425499554514e+01 -4 0 -1
781 1 2.8636192420244808e+00 7.3228060216134292e+00 1.4614004184378844e+00 -2 0 -2
880 1 1.0637435309927245e+01 1.2911028380769891e+00 8.7011434443847886e+00 -3 0 2
626 2 2.2503242163394548e+00 2.3859650748445889e+00 1.8406067476634618e+01 0 0 -1
513 2 7.8974353723027146e+00 -1.0939368315564595e+00 1.7929298394428848e+01 1 0 0
703 1 -3.3618666074029031e+00 4.9113222760591384e+00 1.4614052355273783e+01 -2 0 -1
382 1 1.4830925120138215e+01 3.9830853325308944e+00 4.4560904216789998e+00 -2 0 1
21 2 5.9706483866417930e+00 9.1626191899514335e+00 1.9022237771342223e+01 -3 0 -4
745 1 -3.5939986636126044e+00 9.2341407515121983e+00 1.2123762924551627e+01 -2 0 0
54 2 1.2642329023598197e+01 2.0961421444747348e+00 3.9754359013165823e+00 2 0 0
5 2 3.5261247624877115e+00 9.5335198595204069e+00 5.5350068580507772e+00 1 0 0
689 2 -1.8749712783140080e+00 1.4597025130364276e+00 5.6768109862441722e+00 -2 0 0
35 2 1.4344122919777908e+01 -1.0366831060168091e+00 5.6449955787775377e+00 -2 0 0
458 2 8.7881221703492995e-01 -6.4399210826311126e-01 2.8232118071135357e+00 -2 0 -2
652 1 -7.6364832783336634e-01 7.3701598776162047e+00 3.0319012855481464e+00 -1 0 0
52 1 1.2632938585216065e+01 1.1973563060082242e+00 4.2150669823177820e+00 2 0 0
356 2 -2.8092012716636190e+00 4.7443319175919472e+00 1.6745047498117525e+01 -4 0 -3
477 2 7.1842447856291081e+00 5.7955456723784211e+00 1.2654185198890282e+01 -1 0 2
500 2 -1.0652252836202054e+00 3.7686006067112920e+00 1.2446059331342333e+01 1 0 0
754 1 6.7394400743771108e+00 9.9543913825275343e+00 3.5759906074834715e+00 0 0 2
806 2 1.4018554788115519e+01 6.4139519047412907e+00 7.4645888409575099e+00 -4 0 1
789 2 5.7588506905617036e+00 4.5625024884623597e+00 3.2372697821740610e+00 -2 0 0
810 2 3.1421473315956479e+00 1.9464714320551479e+00 8.8397580715064343e+00 -4 0 -1
930 2 -1.3396143610113724e+00 3.9104404909374866e+00 7.9256637390533777e+00 1 0 0
702 2 5.3806658964160725e+00 1.5507268142266706e+00 1.8735936125658235e+01 -3 0 -3
501 2 -1.6654808761607334e+00 2.7742960263003349e+00 1.3478735897308329e+01 1 0 0
625 1 2.6852135933392676e+00 3.2208882344772531e+00 1.8646528324131328e+01 0 0 -1
320 2 1.2993576875483178e+01 -1.3306639255053136e+00 1.4105074383727546e+01 -4 0 -3
101 2 6.9184110967159596e+00 8.3246842977176865e+00 9.9634328223430746e+00 -1 0 -1
384 2 1.5020758309598911e+01 4.5758980853668501e+00 5.1853239214310669e+00 -2 0 1
245 2 1.0725395498457527e+01 5.8071625066447217e+00 1.2566523503732700e+01 -4 0 -4
622 1 -4.7311190299342023e+00 1.0976562327177311e+00 1.5567241719973456e+01 -2 0 -2
624 2 -4.2652803479638735e+00 9.7351259483531782e-01 1.6445932979992669e+01 -2 0 -2
179 2 1.6565911596395466e+01 5.4407747974181673e+00 1.8146473514102297e+00 -3 0 0
1584 2 9.6051133840427738e+00 8.9012664519159994e+00 1.3564160547554986e+01 0 0 0
672 2 -7.1326143380762641e-01 -8.4105106340969416e-01 8.3506938643627198e+00 -3 0 -1
153 2 7.7619392949417705e+00 -1.4282741760599520e+00 3.7334351418368277e+00 3 0 0
268 1 -1.3647610768557281e+00 7.9942807548580124e+00 1.1750754295977172e+01 2 0 -2
600 2 -4.7954920471187679e-01 3.6768280807684794e-01 1.0462476237899608e+01 -3 0 1
49 1 1.1219474837539838e+01 2.2301094705446189e-01 1.2336592079754784e+01 -1 0 0
183 2 1.1557612014810381e+01 6.3750585575438823e+00 7.7117056785319127e+00 -1 0 0
951 2 1.1517956257266299e+01 -1.0178019661993369e+00 1.8060959021721473e+01 -2 0 1
890 2 9.7890070677072121e+00 -1.8362922029719273e+00 7.1307842310334326e+00 -1 0 0
1582 1 1.0401639478464290e+01 8.6509334292715057e+00 1.4126062801497751e+01 0 0 0
667 1 5.0670639090266807e+00 9.6464805624083318e+00 1.4705885026845905e+01 -3 0 -3
135 2 -4.7026159014079916e-02 3.6397551386270166e+00 9.2870698805200167e+00 1 0 -1
113 2 9.1807011496268878e+00 -1.8872884750091272e+00 1.4564949816756247e+01 -2 0 -1
954 2 1.3665345141128354e+01 6.5429574307298157e+00 2.6427192803370065e+00 -1 0 1
598 1 -1.0435798032286754e+00 -9.0460278725780441e-02 9.8193459722097209e+00 -3 0 1
120 2 4.4084923048689673e-01 6.1091647352459635e+00 2.7723564430678396e+00 -2 0 -2
858 2 -6.2749522315399386e-01 8.8458459111948127e+00 7.0597830144233784e+00 -1 0 -3
640 1 1.7620260406928470e+00 5.8832334167893778e+00 1.1411554766988784e+01 4 0 -1
753 2 -3.3120594288828538e+00 7.4330723800334582e+00 1.8689049112833697e+01 0 0 2
527 2 3.2481106537919091e+00 2.1233808372621077e-01 5.3377398631337547e+00 -2 0 0
119 2 1.9954571352377601e+00 6.0626216380435398e+00 2.3497377859363868e+00 -2 0 -2
525 2 5.0099757690371343e+00 5.1733123618677617e+00 1.1804023625746339e+01 -2 0 -4
495 2 1.7058677062121181e+00 5.6334051386721846e+00 6.5348872856016493e+00 -3 0 -2
971 2 7.9096855979174707e+00 6.4894739523405676e+00 6.5335454098618762e-01 0 0 1
82 1 1.0710104188577807e+01 7.9819185162356980e+00 2.4607000362867812e+00 -1 0 -2
212 2 7.8818785979527206e+00 1.9363536643175800e+00 7.4955593812432166e+00 -5 0 -2
701 2 5.7485938807894827e+00 3.1307670132900585e+00 1.8496746582071811e+01 -3 0 -3
234 2 8.0130821487977819e+00 9.0818295160423936e+00 6.9300411004222724e+00 -2 0 0
470 2 1.5724989362620629e+01 2.6404183571310416e+00 3.8614598739996473e+00 -7 0 -2
471 2 1.5530022463906962e+01 1.3179035415336120e+00 3.0393128718174616e+00 -6 0 -2
584 2 1.3777068201016696e+01 8.2242998606858038e+00 8.9911135484281601e+00 -5 0 -4
977 2 1.2030433966018828e+01 -3.3279037828313651e-02 1.0539596423804281e+00 -3 0 0
46 1 8.7782180766883435e+00 2.5426179541037861e+00 5.8661718200166755e+00 -3 0 0
992 2 1.3802927070318049e+01 -1.0826819214788874e+00 9.0142758529723981e+00 1 0 1
856 1 -9.0831481472693398e-01 8.2830236878886705e+00 7.8378207953987395e+00 -1 0 -3
627 2 3.6712609865244890e+00 2.9929932355682141e+00 1.8550112429663216e+01 0 0 -1
111 2 1.2449338921350792e+00 3.6172214575342476e-02 1.8452215886238349e+01 1 0 -4
869 2 9.8901204975920614e+00 4.0890638304849469e+00 1.0119681453146404e+01 1 0 0
16 1 3.5859170303978605e-01 5.3069726659243210e+00 1.4920094163168200e+01 0 0 1
178 1 1.5740801235532414e+01 4.9656505255810135e+00 1.9279547925633662e+00 -3 0 0
974 2 9.4845740421908982e+00 -7.9356553761980320e-01 1.6519490135200016e+01 -4 0 -2
118 1 1.2091758911741834e+00 5.5209752080031009e+00 2.7187821130564793e+00 -2 0 -2
392 2 2.1770810095249344e+00 8.2532231725279690e+00 8.9239288244269304e+00 -1 0 -1
623 2 -4.9957132274507270e+00 2.0340562598944016e+00 1.5427689221039497e+01 -2 0 -2
1668 2 5.0222694898079858e+00 3.3543031514174624e+00 1.5499854473939553e+01 -1 1 -2
644 2 -4.7739121474700115e+00 3.8896859216436095e+00 1.4437679219018950e+01 -3 0 -3
671 2 -8.7408731049198041e-01 -1.6490273790250254e-01 6.9098061441888330e+00 -3 0 -1
760 1 7.6296110679065752e+00 -1.2576182828634477e+00 4.7588419091159390e-01 -3 0 2
239 2 6.2639525285644133e+00 5.5687990802296268e+00 1.5581634757608848e+01 0 0 0
716 2 3.2431358097794742e+00 1.1576710014536813e+00 2.8986300229447153e+00 1 0 2
717 2 2.9042061910620260e+00 2.4701372826130408e+00 3.7358093321065464e+00 1 0 2
240 2 7.0552408224049010e+00 6.6916838623415611e+00 1.6129132815322141e+01 0 0 0
904 1 3.5229527373324254e+00 7.3584971646232589e+00 1.7869571568985375e+01 -3 0 1
17 2 3.9407856023300347e-01 6.1734364454755770e+00 1.4524383463819193e+01 0 0 1
516 2 1.0615982396366482e+01 9.2720460451058120e+00 7.3075025682437049e+00 -1 0 -1
778 1 8.4054971563586633e+00 9.4076315078088353e+00 1.6557531782284214e+00 1 0 0
645 2 1.2062862840007629e+01 3.9392062174151086e+00 1.5351191642427366e+01 -4 0 -3
613 1 -9.9542425866660089e-01 1.8492949925634359e+00 1.6435943593249743e+01 -2 0 -1
246 2 1.0968401521108802e+01 7.1501843193146133e+00 1.1807258832244944e+01 -4 0 -4
238 1 7.0981075914485796e+00 5.7115368645985862e+00 1.6107104264100219e+01 0 0 0
522 2 8.3364361610782574e+00 3.7925139563409749e-01 1.1651527267471169e+01 -5 0 -2
715 1 2.7261321376232970e+00 1.9887669506922929e+00 2.8937474483996275e+00 1 0 2
115 1 1.3170280106546905e+01 4.5603978510639722e+00 1.1117622948261880e+01 -5 0 -5
426 2 1.2754714128092687e+01 4.2838670088370501e+00 7.8557780237564092e+00 -2 0 1
494 2 1.4851288763600468e+00 4.4557137864695404e+00 7.7197423511242098e+00 -3 0 -2
503 2 3.8498549167067577e+00 -1.1880898137127156e+00 1.0269200265603514e+01 0 0 0
250 1 4.9998052088752551e+00 7.6979190589263826e+00 9.8852495992741503e+00 -3 0 2
87 2 1.7275149450262308e+01 -1.7079958454353197e+00 7.3046812495269708e-01 1 0 -2
857 2 -6.8019873462076941e-02 8.0481251323164127e+00 8.2532622090782990e+00 -1 0 -3
868 1 1.0809384092848784e+01 3.8764906070427978e+00 9.7973266242317756e+00 1 0 0
291 2 4.9357680899344105e+00 6.4688590743112329e+00 3.9744571163795896e+00 0 0 3
18 2 -2.8770129058117178e-01 4.7817960875626406e+00 1.4362934420783667e+01 0 0 1
467 2 -2.4832505281591679e+00 1.0054912208415953e+01 9.4458405097856470e+00 -1 0 2
252 2 4.4984110445670282e+00 6.9545859730165738e+00 9.4894413831682165e+00 -3 0 1
785 2 -3.6507138253139859e-01 1.2237883588468623e+00 3.7818137661170312e+00 -3 0 -2
870 2 1.1209834729194373e+01 3.6258873845387134e+00 1.0639197417655884e+01 1 0 0
211 1 7.8170122301733116e+00 1.7286754046286590e+00 8.4789762579963739e+00 -5 0 -2
387 2 -4.8349253714756069e-02 4.4388665209423257e+00 5.4450144505820575e+00 0 0 -2
714 2 -1.3452102757505391e+00 -1.1625784227386586e+00 1.1242776961621979e+01 0 0 3
643 1 1.2365831889045737e+01 3.4217695726894251e+00 1.4596845254949713e+01 -4 0 -3
328 1 1.5205591356768259e+01 9.3611622616049086e+00 4.7725612224623664e+00 -2 0 0
747 2 -3.9682994408968959e+00 8.6294340861563210e+00 1.2786083240358677e+01 -2 0 0
289 1 5.1898066091940454e+00 5.5970063616394290e+00 4.3524367780729749e+00 0 0 3
116 2 1.3373605986558820e+01 3.7223844216778268e+00 1.1591549673943659e+01 -5 0 -5
224 2 -2.1361691610781364e-01 4.4826291647541394e+00 1.7978453421526158e+01 -2 0 -2
269 2 -1.7172948796230818e+00 7.1198535781907832e+00 1.1449911009871499e+01 2 0 -1
48 2 9.5272932024519310e+00 1.9514677286046536e+00 5.9169310240078783e+00 -3 0 0
117 2 1.2402013736136340e+01 5.0301696405158376e+00 1.1553395767264259e+01 -5 0 -5
931 1 1.7227363977486121e-01 3.1780041529199377e-01 1.4333207831431066e+01 -2 0 -1
429 2 -4.3313968773123053e+00 8.3127504762930577e+00 1.6944832576267231e+01 0 0 -1
385 1 3.6146470534890041e-01 3.6112049187843915e+00 5.2075914793995253e+00 0 0 -2
838 1 1.7026662484600799e+01 1.0134932752309487e+01 1.3858220276116073e-01 -1 0 -2
961 1 2.5046712213292288e+00 9.3248162871926166e-02 1.5625599770384248e+01 -3 0 -1
42 2 3.9736980731706542e+00 4.1137455912760039e+00 9.1150755243836148e+00 -2 0 3
726 2 1.3936663475613418e+01 1.4171265735504983e+00 9.5588623825140147e+00 1 0 1
749 2 7.6386217797236995e+00 1.0180093052411120e+01 1.2934732545563172e+01 -3 0 1
769 1 -2.6034054362539729e+00 6.0751036927260529e+00 1.0639022216442733e+01 1 0 -3
1002 2 6.2486068812644433e+00 2.3722329914362170e+00 3.6058007284050388e+00 -1 0 1
540 2 4.3238700362308986e+00 -6.7893939476917864e-01 3.7868151504692986e+00 -4 0 -3
905 2 3.3608748738063881e+00 6.6290354191740803e+00 1.7302937361948445e+01 -3 0 1
41 2 3.5336631164666987e+00 5.3822674920341074e+00 8.3421335435844828e+00 -2 0 3
950 2 -5.7287949387321309e+00 6.7182761402760693e-02 1.8828163923914904e+01 -1 0 1
812 2 9.9320980972076214e+00 2.7613082007839225e+00 1.2649323952588086e+01 -2 0 -1
932 2 9.6133189519349571e-01 1.3754316677336131e-01 1.4787360980237475e+01 -2 0 -1
830 2 8.4195517616567672e-01 9.5770166047606473e+00 5.4997881894924197e+00 -3 0 0
213 2 8.7519418552722090e+00 1.6579090748921597e+00 8.6385320237772234e+00 -5 0 -2
290 2 5.8862826766770944e+00 5.7457432458193587e+00 4.9969223810404895e+00 0 0 3
776 2 1.1722441306356696e+01 -1.2995282745696217e+00 2.7512668014719295e+00 -2 0 2
338 2 5.5707156437103356e+00 8.7801754561548151e+00 3.1224966354776087e+00 -1 0 -1
938 2 9.5184349224456124e+00 7.3253431261595487e+00 1.7820403825550301e+01 1 0 0
969 2 3.2915765415629794e+00 3.4743882398095867e+00 1.2129745640583893e+01 -1 0 1
545 2 4.5894782141217547e+00 5.0075248476339098e+00 1.4013943226298299e+01 2 0 1
386 2 -4.5851919119467288e-02 2.8589021486634696e+00 5.6599303159668235e+00 0 0 -2
937 1 9.2043319060471873e+00 7.8096320012932239e+00 1.8634355050220794e+01 1 0 1
40 1 4.2276064867742296e+00 5.0792576973794468e+00 8.9148907853003045e+00 -2 0 3
786 2 1.1930857296554991e+00 1.3503231203607338e+00 3.3842844876428542e+00 -3 0 -2
761 2 6.8289981271036488e+00 -1.6456799752479552e+00 1.5267915506855539e-01 -3 0 2
724 1 1.4454897644923097e+01 1.5476913667924621e+00 8.7649836037168374e+00 1 0 1
784 1 5.3139658353947272e-01 7.9299174774631975e-01 3.8203848967110456e+00 -3 0 -2
967 1 3.0202031711207509e+00 2.5822159731337448e+00 1.1942012832675969e+01 -1 0 1
553 1 3.0271941875053754e-01 4.2085699900632028e+00 4.4154970401987387e-01 -4 0 -1
681 2 1.6390395302135868e+01 3.2487791712876346e+00 3.5854117008714864e-01 -3 0 -2
649 1 5.2971643015072880e+00 -4.8619646082389556e-02 7.5900258406098207e+00 -4 0 0
650 2 5.5195213278615363e+00 8.2633904506519240e-01 7.3212313324856542e+00 -4 0 0
51 2 1.0319347985040345e+01 5.4194850224277724e-01 1.2297591691796157e+01 -1 0 0
233 2 7.3963476328574984e+00 7.9136999847578551e+00 6.1191336101572258e+00 -2 0 0
945 2 2.5604664079610679e+00 3.6747141558296601e+00 5.3194191007987133e+00 0 0 3
673 1 -2.9333464246899332e-01 8.3140003042318202e+00 1.7496217719601113e+01 0 0 -4
939 2 8.2906028072982636e+00 7.5438698186215110e+00 1.8792916996413549e+01 1 0 0
397 1 1.2184706508102140e+01 5.3672469395960727e+00 6.3599510783182245e+00 2 0 0
127 1 1.2253599070144913e+01 3.6542680730895176e+00 3.1692397921274544e+00 -2 0 -1
128 2 1.2903601449169050e+01 4.0716274841082081e+00 3.7905854092342519e+00 -2 0 -1
1407 2 1.2610215891266915e+01 5.8263537257408844e+00 5.5548379596314907e+00 2 0 0
34 1 1.4419371892770940e+01 -9.8186894481063114e-01 4.6449781892878663e+00 -2 0 0
928 1 -1.9924051195754575e+00 4.3503401269885158e+00 7.3353247841150555e+00 1 0 0
777 2 1.1533390924876956e+01 3.6206658911314538e-01 2.9986935423535450e+00 -2 0 2
393 2 1.4690958686261353e+00 6.7304658679519029e+00 8.5187969699385864e+00 -1 0 -1
439 1 7.0168113476033334e-01 7.5651423824613691e+00 1.3468832725789049e+01 -2 0 -2
350 2 1.5295100146628481e+01 1.3867689381488066e+00 1.0232828733457442e+00 2 0 4
670 1 -7.6240761438290860e-01 -1.0706795275955143e+00 7.3716726413796234e+00 -3 0 -1
176 2 5.0563625867292119e+00 -1.0731731073571380e+00 1.3202211412056620e+01 -5 0 1
783 2 2.1484577391859183e+00 8.0812872150396480e+00 1.4987595361691481e+00 -2 0 -2
148 1 -4.4915767903154036e+00 7.3623258691164022e+00 1.3778670503639482e+01 -3 0 -1
994 1 5.4674228025064373e+00 2.4234258991694650e+00 6.4460799036050620e+00 3 0 1
725 2 1.4206817197194628e+01 2.4076789861354486e+00 8.4325054927710354e+00 1 0 1
160 1 -1.7486993953185348e+00 6.6311604154949784e+00 5.6630186033929615e+00 1 0 -5
129 2 1.2663442861580767e+01 3.3923879896510813e+00 2.3086679861727402e+00 -2 0 -1
933 2 -2.9295429068424195e-01 9.6187196552217502e-01 1.4877333507869277e+01 -2 0 -1
173 2 8.6467410948545513e+00 1.7147858086583190e+00 1.4940976755698149e+01 -1 0 -2
1664 2 6.5512641488799233e+00 8.3242262010660024e+00 1.7162788111224369e+01 -3 1 -1
923 2 3.6034530183334263e+00 9.5591184170947265e+00 1.2575181104275195e+01 -3 0 -3
251 2 4.5113248444166372e+00 8.4690385811666413e+00 9.5320661830963367e+00 -3 0 1
462 2 8.2587255492160025e+00 2.8441314056417815e+00 1.0956688787109698e+01 -4 0 -2
651 2 5.8548894424648665e+00 -6.5634778383372416e-01 7.1233495070679202e+00 -5 0 0
996 2 4.6167028394340148e+00 2.7871027488914244e+00 6.1227804489219544e+00 3 0 1
611 2 1.2683656289782547e+01 1.3785218553275960e+00 1.1751476418390554e+01 -1 0 2
921 2 1.1145480119293357e+01 -1.1021317985156260e+00 1.0868888574798900e+01 0 0 -2
750 2 8.0743972724521420e+00 9.0379966700942536e+00 1.1958517864252183e+01 -3 0 1
981 2 8.7359294946488930e+00 8.2458148697732625e+00 8.9321632195810992e+00 -2 0 0
102 2 7.3305229398174570e+00 7.2735123662319747e+00 1.0950280169934047e+01 -1 0 -1
497 2 1.9296201466707599e+00 1.0789655474776572e+00 7.3505800439685718e+00 0 0 1
498 2 1.8425582696448313e+00 3.2859026590131402e-01 8.7238970929062276e+00 0 0 1
395 2 9.5253407790565596e+00 5.3280694000770721e+00 2.5670505723940131e+00 -3 0 -3
389 2 1.4128366286702784e+01 3.0987566980643289e-01 7.7898939539187042e+00 -1 0 0
349 1 1.5000746517084309e+01 5.8538687252866373e-01 1.5936161704954561e+00 2 0 4
679 1 8.9967062705651628e+00 2.7134938286441947e+00 1.9115767418442548e+01 -3 0 -3
398 2 1.1235019545683160e+01 5.3615998914942828e+00 6.0742287335814638e+00 2 0 0
962 2 2.7746550746761454e+00 -8.2501274983989314e-01 1.5824855211149394e+01 -3 0 -1
214 1 1.2171047184027000e+01 9.2670712205762324e+00 4.4964169536717611e+00 -1 0 -2
321 2 1.2523874020353478e+01 -1.4545213712880600e-01 1.5015897264194319e+01 -4 0 -3
943 1 3.4348261942186746e+00 3.4858501492633378e+00 4.8587957141411557e+00 0 0 3
514 1 1.1169632711264972e+01 9.8832932779670450e+00 6.8407586996022722e+00 -1 0 -1
96 2 1.4494458335571846e+01 7.1994514244218522e+00 4.6268569620188806e+00 -2 0 -1
220 1 5.3322587967561841e-01 9.4268923116063661e+00 1.5279736685364524e+01 -2 0 -3
172 1 7.9770801196069350e+00 1.2862566301045648e+00 1.4425781518974686e+01 -1 0 -2
298 1 1.4749904430604053e+00 1.7467994551623076e+00 3.1891523811129596e-01 -2 0 -1
680 2 1.4873478876554824e+01 3.3138899767907954e+00 9.7722473321208876e-03 -3 0 -2
296 2 1.3493509529025980e+00 9.8949125658674131e+00 2.1808854941063491e+00 2 0 3
538 1 4.3174182045026184e+00 2.3522308166111650e-01 4.0252528464649382e+00 -4 0 -3
944 2 3.9249804618568285e+00 4.3301843878566011e+00 4.8515350990447939e+00 0 0 3
100 1 7.7253482852065716e+00 8.0513866266773331e+00 1.0478339209815047e+01 -1 0 -1
1667 2 5.4290064664731199e+00 2.0773873230438875e+00 1.6424231190386099e+01 -1 1 -2
352 1 7.2242285711758409e+00 6.2845129450326453e+00 6.0947695630402388e+00 -1 0 0
174 2 7.2291676146020682e+00 1.7312975023598383e+00 1.4830747386488188e+01 -1 0 -2
388 1 1.3850385036759223e+01 -5.1038489652245489e-01 7.3154345711025419e+00 -1 0 0
184 1 -1.8250750973627401e+00 -1.2242608631063507e+00 1.8594442124775295e+01 -4 0 -7
572 2 1.3282409776194404e+01 -1.8818808134622009e+00 3.9158166726550419e+00 1 0 4
460 1 8.2513076089401736e+00 3.7513589055319878e+00 1.0616025319993351e+01 -4 0 -2
607 1 -3.2322754621415051e+00 8.0263090159351513e-01 1.7806822053796477e+01 -3 0 -1
748 1 8.2681171494124150e+00 9.3626502715329512e+00 1.2856900031715433e+01 -3 0 1
746 2 1.3811267628837236e+01 9.0436915353136822e+00 1.1342781616747233e+01 -3 0 0
775 1 1.1149090904847363e+01 -4.2853828358339929e-01 2.5311527361641617e+00 -2 0 2
595 1 1.8213835458447072e+00 6.4147015392006956e+00 5.1746575117578386e+00 3 0 -2
528 2 1.7012191718430387e+00 7.7838513113846197e-01 5.2776280454146676e+00 -2 0 -1
109 1 1.5232655881943593e+00 8.9081010614939737e-01 1.7964998900235113e+01 1 0 -4
615 2 -9.3573010427339476e-01 2.8864597079267291e+00 1.6574526921259974e+01 -2 0 -1
230 2 1.8857265248433595e+00 -1.1730799301518293e+00 6.3095181676316461e+00 0 0 -2
461 2 7.7892288081257597e+00 3.7404229205321453e+00 9.7301657962868600e+00 -4 0 -2
599 2 -1.7658383510784526e+00 5.7531734113455668e-01 9.6660687135894516e+00 -3 0 1
408 2 1.3179137860306573e+00 1.3716202580214856e+00 1.1850163064501411e+01 -2 0 -2
20 2 5.0011870003071204e+00 7.8733915002787036e+00 1.8558861283764063e+01 -3 0 -4
182 2 1.1254461400158824e+01 5.4843506750977769e+00 9.0269009180633013e+00 -1 0 0
279 2 5.7837590332323208e+00 9.6736042947922023e+00 6.6051800798278597e+00 -4 0 -1
844 1 7.5488652431559027e+00 -1.0711361630700740e+00 1.1364915266033627e+01 1 0 1
549 2 8.4203945014183539e+00 9.6957338815725898e+00 1.6327397031000267e+01 -3 0 -4
475 1 6.8064035663054989e+00 5.8216921482442956e+00 1.1770876317262273e+01 -1 0 2
68 2 6.9242055102708369e+00 4.8595451153334501e+00 1.7781710155364440e+01 -4 0 -3
526 1 2.3912267860367749e+00 4.7838617789140603e-01 5.8547927107341815e+00 -2 0 0
133 1 1.6591233290366336e-01 3.2829706144954649e+00 8.3966664733398755e+00 1 0 -1
610 1 1.3471348532282068e+01 1.8548156224397090e+00 1.1441334244587651e+01 -1 0 2
675 2 -1.1985734268725823e+00 7.9006326922793662e+00 1.7667968274500243e+01 0 0 -4
548 2 9.7410250890140819e+00 9.6900485868031598e+00 1.5391671242250510e+01 -3 0 -4
300 2 -4.5183281885720437e+00 1.6812537277619910e+00 1.8708124270724596e+01 -2 0 -2
85 1 1.6386379421780283e+01 -1.6457898595732450e+00 1.0660918132854089e+00 1 0 -2
782 2 3.6659603710194428e+00 7.7403382907554477e+00 1.9068145426525602e+00 -2 0 -2
690 2 -1.7619451150269057e+00 1.8785484689348402e+00 7.1790548956465940e+00 -2 0 0
561 2 7.9530914105059001e+00 -3.0751154836023997e-01 8.1858891976209929e+00 -2 0 1
728 2 8.0142639142844700e+00 5.4732499834813080e+00 1.4620554823738049e+01 0 0 1
112 1 8.5368901392426917e+00 -1.3983602393242109e+00 1.5007909431826832e+01 -2 0 -1
504 2 5.0406447860747132e+00 -1.0631523153493174e+00 9.2536724591699375e+00 0 0 -1
685 1 1.9285367548749841e+00 -9.9726177632770785e-01 9.9059870037990194e+00 -3 0 1
4 1 2.8994113241149533e+00 9.1913742754824792e+00 4.8212412638489655e+00 1 0 0
502 1 4.7466260204895878e+00 -1.4239286359511794e+00 1.0129850096540681e+01 0 0 -1
67 1 6.9186003944472567e+00 4.4235327841761132e+00 1.8661600795771651e+01 -4 0 -3
727 1 8.4297875301890510e+00 5.5955550390891196e+00 1.3777728416681038e+01 0 0 1
114 2 8.2547766767968476e+00 -6.0868201107674569e-01 1.4546171517803430e+01 -2 0 -1
425 2 1.3272326949873932e+01 4.5301360192543969e+00 9.2227514812799960e+00 -2 0 1
544 1 4.9036805100349490e+00 5.0087416396516184e+00 1.4948724637408722e+01 2 0 1
976 1 1.2704306501742442e+01 2.9274089600920306e-01 3.8885529945149605e-01 -3 0 0
1001 2 7.3512455018857974e+00 1.1873538532941024e+00 3.6053026673943136e+00 -1 0 1
496 1 1.6300409506648026e+00 1.1744625415629524e+00 8.2707191181386168e+00 0 0 1
655 1 6.9948687141364401e+00 8.4703713755721619e+00 1.6267904159284754e+01 -3 0 -1
337 1 4.8577282947872593e+00 8.1423942039646811e+00 3.0516296724741578e+00 -1 0 -1
756 2 7.4179173796709001e+00 9.7695688805240710e+00 2.8459068479861331e+00 0 0 2
221 2 1.4763747858774323e-01 8.9193025892245252e+00 1.6061200237228224e+01 -2 0 -3
575 2 1.1144602904989256e+01 9.2326047010410939e+00 1.3947625998746711e+01 0 0 0
583 1 1.3430002872385829e+01 8.8396517775372025e+00 9.6843407688427714e+00 -5 0 -4
216 2 1.2541570477410119e+01 1.0005597875586819e+01 3.9977819973376914e+00 -1 0 -2
641 2 1.5776660141308616e+00 6.4306842720417503e+00 1.2185532828334802e+01 4 0 -1
110 2 1.8805029918705696e+00 6.0740498825265377e-01 1.7060404419318346e+01 1 0 -4
83 2 9.7917593905629641e+00 8.4000246421002629e+00 2.2166875661848455e+00 -1 0 -3
47 2 8.2870194056871362e+00 2.3079994427651735e+00 5.0206962361314282e+00 -3 0 0
207 2 4.7314041697719480e+00 1.1645226183218704e+00 1.4360842739675247e+01 3 0 0
808 1 3.7562764949857397e+00 2.5295464079946051e+00 9.3095004269203390e+00 -4 0 -1
979 1 9.5475849631423362e+00 8.2702763548024176e+00 8.4564602176742092e+00 -2 0 0
577 1 2.4703536037276361e+00 5.1352586581761095e+00 1.6509614555615681e+01 0 0 0
19 1 5.9091516873608816e+00 8.2172233539080572e+00 1.8734600287743643e+01 -3 0 -4
1000 1 6.6791881947416467e+00 1.6632621060553787e+00 4.1534957744691088e+00 -1 0 1
294 2 1.8474058775596358e-01 4.9049730261688822e+00 1.1189504127636042e+01 1 0 -3
390 2 1.2924952288691854e+01 -4.8125104009603370e-01 7.2587166454854604e+00 -1 0 0
889 1 1.0678896777245770e+01 -1.9236035857292149e+00 6.6649665715188808e+00 -1 0 0
521 2 8.3601915155834838e+00 1.3058385538930239e+00 1.2785161468773291e+01 -5 0 -2
813 2 1.1164571913099635e+01 3.2131035872962999e+00 1.3482425182091218e+01 -2 0 -1
912 2 1.0669926115385600e+01 -2.9562589735754208e-01 6.0890828194217592e+00 -2 0 1
560 2 7.6561967770911981e+00 -1.6822806790557963e+00 7.4812801913123250e+00 -2 0 1
84 2 1.0496747055746955e+01 7.0773182076023566e+00 2.7869989264962385e+00 -1 0 -3
771 2 -3.4205432966217981e+00 5.5955296668808261e+00 1.0929047647890469e+01 1 0 -3
161 2 -1.6225901926042585e+00 5.8256728121056147e+00 6.1570110376365452e+00 1 0 -5
809 2 4.5751532816770943e+00 2.0840536394674478e+00 9.5446183026198721e+00 -4 0 -1
866 2 -2.6097855669821843e+00 3.9827394129472040e+00 1.8918792028296185e+01 -3 0 -1
94 1 1.3563382155880678e+01 6.9887234225015167e+00 4.4736523542442566e+00 -2 0 -1
225 2 -3.2653938222457590e-01 4.9735991891814875e+00 1.6466006881553586e+01 -2 0 -2
770 2 -2.7216555149094974e+00 6.3544048144504366e+00 9.6868863192630368e+00 1 0 -3
123 2 9.2980397662634626e+00 2.5486887385338655e+00 1.7426403434870121e+01 -2 0 -1
440 2 7.4978118919430692e-01 8.3420081384759825e+00 1.4117609260764928e+01 -2 0 -2
383 2 1.5319539419880634e+01 4.4269623921921948e+00 3.6645120749154789e+00 -2 0 1
391 1 1.5585042622757306e+00 7.5352954943514359e+00 9.1480537511105933e+00 -1 0 -1
499 1 -1.3210015344699699e+00 3.7065668084827514e+00 1.3377132990138929e+01 1 0 1
910 1 1.0643166825470878e+01 6.9321956867451107e-01 6.0293736242513285e+00 -2 0 1
546 2 4.1178990818858754e+00 5.0166900164523991e+00 1.5524185253409795e+01 2 0 1
949 1 -5.8342380340827500e+00 -8.8832129226654821e-01 1.8754618571390537e+01 -1 0 1
729 2 9.0832667969755754e+00 4.8644730928986402e+00 1.3755248797529379e+01 0 0 1
612 2 -3.8105080216585692e+00 1.5302694774702452e+00 1.2085114610415722e+01 0 0 1
674 2 3.0454160157229193e-01 7.8231696402767845e+00 1.8134330695164390e+01 0 0 -4
121 1 9.3537094564213490e+00 2.7219672597173057e+00 1.6493380334847593e+01 -2 0 -1
911 2 1.1352835730747248e+01 9.0465413211613122e-01 5.3206111927494986e+00 -2 0 1
424 1 1.3581047325971067e+01 4.2713694420133486e+00 8.3700551874229170e+00 -2 0 1
811 1 1.0550365958574741e+01 3.5837907681049410e+00 1.2770328068971482e+01 -2 0 -1