LAMMPS data file via write_data, version 3 Mar 2020, timestep = 46200000

2016 atoms
2 atom types

0.0000000000000000e+00 1.7978287213476069e+01 xlo xhi
-5.2494801005469931e+00 5.0245640077450858e+01 ylo yhi
0.0000000000000000e+00 1.9119974688586229e+01 zlo zhi
5.2622109470988138e-02 -6.6858241742678821e+00 -2.0933712267158455e-02 xy xz yz

Masses

1 16
2 2

Atoms # atomic

942 2 1.1898195444676681e+01 7.7446873409853190e+00 1.3531123569844352e+01 0 0 -1
57 2 -2.9629414456128087e+00 -1.9384226376788698e+00 1.2790279215721625e+01 -1 0 2
1717 1 1.1149696374322101e+01 1.6502810840126125e+00 5.5368954359375904e+00 0 0 -1
1741 1 3.7757094182404889e+00 -1.9562060017138174e+00 6.6815177013987901e+00 0 1 -2
1075 1 -2.3110432965493874e+00 7.6958078368475338e+00 1.8879860116416516e+01 -1 0 -2
507 2 2.8324379187628321e+00 -4.5607893668745678e+00 1.1189357190222806e+01 -3 0 -3
963 2 1.0039886061144163e+01 -3.7521152110654459e+00 1.7412039384837950e+01 -4 0 -1
1300 1 4.3450371750495007e+00 7.0544512557169785e+00 4.8980154216490632e+00 2 0 -1
1450 1 6.1490900729773283e+00 6.2069811527572547e+00 3.1408689263667977e+00 0 1 -1
245 2 8.1564679860334834e+00 6.8539172545905558e+00 5.1075800789191632e+00 -6 0 -6
1260 2 1.2218362653535959e+01 -3.4642201062887166e+00 1.2308690926426081e+01 0 1 0
837 2 3.3356015530345777e+00 2.8766387932879951e+00 5.5178215972889371e+00 -4 0 -1
1499 2 -6.9724769695754274e-01 -3.4719869850595364e+00 4.2829041276435698e+00 -1 0 1
1680 2 3.9889968284007500e+00 5.7652373461911317e+00 1.1676453889768201e+01 -1 0 0
2007 2 8.9434415122009838e+00 3.4744587182609887e+00 8.8727069359031390e+00 0 1 2
178 1 6.9233595095938609e+00 1.8053774908921403e+00 2.2498114868613728e+00 -1 0 -1
1237 1 4.8340332229765810e+00 2.8920656503203706e+00 1.2414213287146556e+01 1 1 -3
96 2 1.4987118944855572e+01 -1.0465987764812299e+00 1.9887223262489870e+00 -1 0 -2
1149 2 2.2722668595218809e+00 -3.9983895603800246e+00 8.6705038930417011e+00 3 1 0
177 2 3.6456290078273881e+00 2.0985190340092261e+00 1.1837046019807502e+01 -6 0 0
27 2 1.2638517135336647e+01 2.0164443172256217e+00 8.3866413399700548e+00 -1 0 -1
730 1 1.6035677591970799e+01 6.1860815934960716e+00 3.4843706357084816e+00 2 0 3
1533 2 5.6976165499827873e+00 -2.1259703024033301e+00 1.2594028819974268e+01 3 0 1
1830 2 1.7147429483499650e+01 -1.8039270976652628e+00 2.3056464637704256e-02 1 1 3
260 2 8.3418145964487778e+00 7.6562441456078574e+00 7.5871049700846749e-01 -5 0 -2
297 2 1.3782655216971325e+00 5.1426043004448641e+00 1.4629885321970919e+01 5 0 4
940 1 1.2367814098188607e+01 6.9629848243160453e+00 1.3171190200190454e+01 0 0 -1
558 2 1.3010497423810371e+01 6.3036119636532266e+00 1.7816004748860617e+00 -2 0 0
861 2 -5.0023730035755296e+00 6.2620058161823398e+00 1.4432882973034834e+01 -3 0 1
109 1 1.1981650757771394e+01 -2.1940939886125501e+00 1.4994398879733135e+01 0 0 -4
855 2 -1.9843200334236544e+00 3.5258474913064823e+00 1.5396371328752856e+01 -1 0 -2
179 2 6.3594779160809294e+00 1.2784043267880003e+00 2.7873359097279176e+00 -1 0 -1
1443 2 8.1711941390068255e+00 1.4540667108880267e-01 1.4263754655124391e+01 -1 1 -1
512 2 1.0009437862039865e+01 -1.4855686526231944e+00 3.0858681457923507e+00 2 -1 -1
1649 2 3.6311540612473818e+00 -3.7421483856926638e+00 1.7740801562697815e+01 1 1 0
467 2 1.2514833759193184e+01 -4.0524163796157460e+00 3.9165807330203912e+00 0 0 2
1936 1 -2.3838554672041505e+00 2.8889046198434443e-01 1.4408689839242742e+01 -1 1 0
976 1 1.3560938187165320e+01 5.5996757464667706e+00 5.2655599017662595e+00 -1 0 -1
299 2 1.0857802601221014e+01 5.4520683092349795e+00 1.6426331068317001e+01 -4 0 -2
836 2 2.4751727287715299e+00 1.7592855210363174e+00 4.8301626497837482e+00 -4 0 -1
866 2 5.0427436089044875e-02 8.4107191476663949e+00 9.8320817194032859e+00 -1 1 1
1430 2 9.8672286577523458e+00 3.1343948535278034e+00 3.2965377410151708e+00 1 1 -2
1441 1 8.3734521845129173e+00 7.5415610617631579e-02 1.3300950322830010e+01 -1 1 -1
472 1 -3.1028262285269701e+00 9.9666128087919681e-01 1.6768966995435100e+01 1 0 0
776 2 1.5712636778167258e+01 7.8830481877419718e+00 5.8190568914502370e+00 -3 0 1
775 1 1.5170165098172944e+01 7.3371926283384781e+00 6.4258703692113182e+00 -3 0 1
768 2 -2.5863491311769637e-01 -1.7242876612678688e+00 1.0201588877628103e+01 -3 0 0
694 1 -1.3463167415028545e+00 2.8151964649699597e+00 1.6925355212094242e+01 -2 0 -1
1255 1 8.3547054491905932e+00 5.2538971800437242e+00 1.8526097935354578e+01 0 0 -2
550 1 1.5932056955485269e+01 -4.3160281537097855e+00 3.3470792377606315e+00 0 0 1
783 2 1.1206026994069589e+01 -9.9581398976560287e-01 9.4446592598426395e+00 -2 -1 -6
1765 1 2.4002369247909994e+00 7.2928279594132217e+00 8.0873525852654122e+00 4 0 5
1879 1 -3.4496365805199325e-02 1.2379717996451820e+00 1.3592511482562523e+01 -3 1 -6
556 1 1.3538035367389515e+01 6.7972713695865075e+00 1.1044287351809530e+00 -2 0 0
781 1 1.0640614477103384e+01 -3.3060002324460402e-01 9.9731302186236430e+00 -2 -1 -6
1100 2 8.7944596885145714e+00 6.9551191939125658e+00 1.6054270482259319e+01 1 0 -1
175 1 2.9559567255909069e+00 1.4443909417445377e+00 1.1519037098971024e+01 -6 0 0
474 2 -2.3983380172885163e+00 1.6321491546435567e+00 1.6940001024287305e+01 1 0 0
1716 2 1.0342542695196718e+01 -2.5171636759473555e+00 5.5220163685425820e+00 1 1 1
1485 2 -2.8998212630636155e+00 -5.1500190822683916e+00 1.4749972340291375e+01 1 1 1
406 1 4.3798616648248769e+00 -1.2111267650380952e-02 1.5619165792801386e+01 -3 0 -4
360 2 -7.5242587875562261e-01 7.6285229944101829e+00 1.7714745346377409e+01 1 1 -2
1231 1 4.9461299577293527e-01 -3.0256879364209746e+00 1.5347776665224872e+01 3 0 -1
249 2 6.9466959194779303e+00 -4.3879340371763913e+00 1.7503590475248821e+01 0 0 3
1806 2 -9.9481661913118846e-01 -2.4318976056180333e+00 6.5022292039682306e+00 2 1 2
295 1 1.9904140777236021e+00 4.6674481057863542e+00 1.5125906991774393e+01 5 0 4
1099 1 9.5106935489352722e+00 6.6363905885084815e+00 1.6636460264295181e+01 1 0 -1
717 2 5.4077052428076717e+00 5.6945558906730067e+00 1.4627176827050372e+01 3 0 1
766 1 -3.2111556338143465e-01 -2.3981296659647455e+00 1.0948575319187659e+01 -3 0 0
1860 2 -2.4735094691580408e+00 -4.9235845479968434e+00 7.7844793941778665e+00 -1 1 -1
767 2 -1.1451296566253659e+00 -2.8831838985367453e+00 1.0775525324634128e+01 -3 0 0
485 2 5.0623506538239731e+00 4.9146428078454694e+00 1.8107457482027900e+01 -3 0 -2
180 2 7.6210610183419201e+00 1.2567361815764535e+00 1.8621464531734111e+00 -1 0 -1
437 2 4.9861842425551268e+00 7.3030754897588768e+00 1.8308830768702229e+01 1 0 -3
2010 2 1.1421395854707033e+00 -6.5041097889247723e-02 2.3227424693917142e+00 1 0 0
727 1 9.4074333994342485e-01 7.7702789304709707e+00 5.8778927715455778e+00 -2 1 1
676 1 1.2921936341142018e+01 -4.4014353717429904e+00 9.1156302070943269e+00 -3 0 0
176 2 2.0838802315443572e+00 1.8768842585189196e+00 1.1220456078571406e+01 -6 0 0
2006 2 8.1358813600940003e+00 4.6002945000325486e+00 8.1108892413797182e+00 0 1 2
1702 1 1.1917105201674442e+01 5.2087607787320387e+00 9.2374151305892980e+00 0 0 2
196 1 9.9085779584937690e+00 6.5653846338116661e+00 2.9628190930046991e+00 -4 -1 -2
941 2 1.1784995307166241e+01 6.5724027752768599e+00 1.2440766689856886e+01 0 0 -1
461 2 4.7463119870882471e+00 7.8015130659585150e+00 6.4349351488046560e+00 -5 -1 0
732 2 -1.0294969269150314e+00 6.1826914509059101e+00 3.8887790361643795e+00 3 0 3
1650 2 4.0661152690808633e+00 -2.3631845868188823e+00 1.8425518888717253e+01 1 1 0
261 2 9.6832784120632702e+00 7.1036543309493911e+00 1.0817727725052946e+00 -5 0 -2
506 2 3.7839893625591090e+00 -4.1054189166924679e+00 1.2301462816453144e+01 -3 0 -3
466 1 1.2128643796781676e+01 -3.7959365941576095e+00 4.7777259090669242e+00 0 0 2
1020 2 9.9424511545078609e+00 5.1048240844157249e+00 1.1801696979705731e+01 -1 1 -3
1317 2 9.5212326884286274e+00 6.4783386605233098e+00 8.7230012744562782e+00 0 0 -1
473 2 -2.8838927207145311e+00 3.2892194302861277e-01 1.7501362278077512e+01 1 0 0
835 1 3.3174594010393905e+00 2.1596775458413928e+00 4.8046928986420605e+00 -4 0 -1
1804 1 -1.4523474719210541e+00 -2.2212861787239504e+00 7.3064326530760546e+00 2 1 2
1537 1 1.2092071549449669e+01 -1.7313858361389780e+00 8.2627458599859889e+00 1 0 1
486 2 4.7312428672667188e+00 5.6660901360866749e+00 1.6889148187328558e+01 -3 0 -2
867 2 1.1986208041458992e+00 7.5992928440841592e+00 9.1914866985417110e+00 -1 1 1
1431 2 8.3989166083972151e+00 2.9052902001316099e+00 3.1934176282643545e+00 1 1 -2
1018 1 1.0593482905657844e+01 5.8606431832321881e+00 1.1613851714353371e+01 -1 1 -3
1238 2 4.9878919529648096e+00 2.9221127710982397e+00 1.3396659649715190e+01 1 1 -3
110 2 1.1613235443752830e+01 -1.4772876112162536e+00 1.5608832944409434e+01 0 0 -4
1653 2 9.3372871831750928e+00 6.4428295940145119e-01 1.3094080014366394e-01 -1 0 2
977 2 1.4084104914661369e+01 4.7828611251866597e+00 5.5704753726746068e+00 -1 0 -1
108 2 3.1710796387376110e+00 2.7672098568420367e-01 1.2658477851578612e+01 -2 0 -2
1294 1 7.0114916208625671e+00 4.2987056836178326e+00 1.6446866138389680e+01 3 0 1
696 2 -4.0688549252440787e-01 2.7211274277508881e+00 1.6657656923670693e+01 -2 0 -1
2016 2 1.0065789313986514e+01 -5.1055961711672913e+00 1.1456012310780439e+01 0 1 0
897 2 -8.6790445599104205e-03 7.8806737484015486e+00 2.7701760112506331e+00 -2 0 1
1412 2 -3.4950819980503303e+00 -3.9074381053973202e+00 1.0888323502054591e+01 0 1 -1
1974 2 1.0761892575807426e+01 2.6843807444564316e-01 1.8352859428703865e+00 -1 0 2
55 1 -2.6551763760396532e+00 -2.2628076901342036e+00 1.3640409462627868e+01 -1 0 2
1390 1 1.4584589689306413e+00 -4.2520486790639218e+00 1.0240108579681470e+01 0 0 -2
716 2 3.8207775673528488e+00 5.7860861192026416e+00 1.5000585086556828e+01 3 0 1
2014 1 1.0797358766431799e+01 -4.9048024506677077e+00 1.1999477860456398e+01 0 1 0
117 2 -3.2623765899772073e-01 -1.2352826868491062e+00 8.3816581681238151e+00 -4 0 -6
1708 1 3.9300003364487650e+00 1.1936764983920716e+00 8.7933341167446404e+00 2 1 0
95 2 1.4139669434996312e+01 -1.5025218088724124e+00 3.2128184607194052e+00 -1 0 -2
777 2 -2.1121742877700647e+00 6.9799555289231332e+00 7.0111224049661107e+00 -2 0 1
115 1 8.8394700053988640e-02 -6.2696061521540880e-01 9.0723097108626831e+00 -4 0 -6
843 2 9.8407134371829361e+00 -3.6320421722629055e+00 7.4200769684952999e+00 -6 0 -4
460 1 4.8307637354995894e+00 8.2265013290975606e+00 7.3356335429156010e+00 -5 -1 0
934 1 9.1880853645707852e+00 3.6111975336569007e+00 4.3134436624644501e-01 -5 0 -2
1752 2 -2.7549045451134213e+00 -3.4460285573865392e+00 1.6345702485391332e+01 -2 1 -1
379 1 7.9131522563207239e+00 8.0007366555547179e+00 1.4689609021902676e+01 -2 0 -2
94 1 1.4695618113364301e+01 -1.8113129892670861e+00 2.4500225617663163e+00 -1 0 -2
116 2 8.8909609747142326e-01 -3.4539637494667375e-01 8.5516945348607649e+00 -4 0 -6
1829 2 1.6544714985201306e+01 -3.2825524472572187e-01 4.1021644563291249e-01 1 1 3
1478 2 1.7470956320208060e+01 7.8678229371306276e+00 9.6980319557733827e-02 -2 1 0
441 2 -1.4742564048818885e-01 2.4753031787786837e+00 1.0592938286722585e+01 1 0 0
1679 2 2.7823959110141496e+00 4.8734320064903542e+00 1.1356240181388172e+01 -1 0 0
1233 2 7.0520423634484608e-01 -4.0085041378068054e+00 1.5207512081012387e+01 3 0 -1
1201 1 5.6164800381985645e+00 -2.5889070054931107e+00 9.4071959108904923e-02 2 0 2
238 1 -1.1553274409957166e+00 1.9556344630760929e+00 9.1218049520598576e+00 5 0 2
1224 2 -2.4834489331946141e+00 -1.6888373251496915e+00 1.8727439926612238e+01 0 1 1
1203 2 -1.2610712947136804e-01 -2.2679869118227476e+00 1.8781502586620370e+01 2 0 1
300 2 1.2257614886159962e+01 5.0977107840563480e+00 1.5736423033545881e+01 -4 0 -2
1742 2 3.0850572210351674e+00 -1.2644833857670172e+00 7.0214767781797027e+00 0 1 -2
1265 2 -7.3417406734665036e-01 6.5606027726131533e+00 8.7585393016322701e+00 4 0 0
1312 1 2.7160234386356148e+00 6.5460000166318242e+00 1.6949057050580227e+00 0 1 0
239 2 -1.9513575676369765e+00 2.0762731737975244e+00 9.6561563136357922e+00 5 0 2
240 2 -1.0315482403509075e+00 1.0180747604421221e+00 8.8865820293224704e+00 5 0 2
689 2 1.5825712629362044e+01 4.2242402885246033e+00 5.6264682687848755e-01 -2 0 0
1101 2 9.7948710318405361e+00 7.3737273636521881e+00 1.7251733951425923e+01 1 0 -1
107 2 2.2909600158154833e+00 -8.2172670451500007e-01 1.3259499097718116e+01 -2 0 -2
1072 1 1.4446238190272700e+01 8.2833767385225929e+00 3.0552824177781774e+00 2 0 3
1668 2 1.1161691904371049e+01 1.1626917623241262e-01 1.3291915389577561e+01 -2 1 -4
1648 1 3.4291100236609928e+00 -3.0911244679254617e+00 1.8414566254247720e+01 1 1 0
1540 1 -3.8976335482773945e+00 7.8315526181407158e+00 1.6807782922126684e+01 2 0 2
677 2 1.2934994945250457e+01 -5.0105828110383825e+00 8.3665881674722744e+00 -3 0 0
1316 2 9.1416676069576557e+00 7.6295611911017129e+00 7.7367231027161933e+00 0 0 -1
1452 2 6.5191658569529842e+00 6.8853135819400411e+00 2.5460014571680518e+00 0 1 -1
1278 2 5.5284324123629904e+00 -1.0337685312636591e-01 8.9590180005629581e+00 1 1 3
552 2 1.6341643140920755e+01 -4.6208883023876792e+00 2.5110492416642396e+00 0 0 1
1988 2 1.2752367837759689e+01 -1.8173907249163652e+00 4.6511318969583062e+00 0 1 0
1656 2 8.7587762363589459e+00 -4.5616432688252866e+00 9.5541204299070124e+00 2 0 -1
715 1 4.6945831078696214e+00 6.2395708735775273e+00 1.4969613724810101e+01 3 0 1
782 2 1.0728181184060052e+01 -5.1584010821172122e-01 1.0898536261193241e+01 -2 -1 -6
1756 1 1.4699766064272247e+01 3.5110490791129934e+00 5.8354771189404220e+00 -1 1 -2
1019 2 1.0957525019339053e+01 5.6645530279571830e+00 1.0723067673400756e+01 -1 1 -3
1232 2 8.7521282813243051e-01 -2.5028144734429030e+00 1.4613612577635148e+01 3 0 -1
529 1 7.9669747925323238e+00 -3.7919127914344437e+00 1.3846184045611482e+01 -1 0 0
565 1 -4.3905936225508899e+00 -3.0179466753684649e+00 1.6845433552054740e+01 0 0 2
1703 2 1.2060259331709801e+01 4.2144722240592181e+00 9.2192116138499074e+00 0 0 2
859 1 -4.5455523117720231e+00 5.8469909170083074e+00 1.5191246023269622e+01 -3 0 1
747 2 -1.4912849534040857e+00 -5.0019682925821005e+00 1.7550245120838337e+01 -3 0 -2
1682 2 1.7677457482950665e+00 4.5938114694665728e+00 3.6968051886042530e+00 2 0 0
841 1 9.1427505523909556e+00 -4.1658484908968587e+00 7.9178057680612239e+00 -6 0 -4
842 2 8.5134428604347772e+00 -4.5027618666523610e+00 7.2340431243307188e+00 -6 0 -4
1758 2 1.4214238057480578e+01 2.8272717127496900e+00 6.3619467777090675e+00 -1 1 -2
1466 2 4.9570072122030133e+00 7.9357414158384767e+00 1.4206586198025464e+01 1 0 0
1208 2 7.7297034325192993e-01 -2.3555425823289378e+00 1.6890654480171154e+01 2 0 2
1808 2 5.5070030950510729e+00 -2.7324155739051270e+00 1.5752813019622463e+01 -2 1 -1
1964 2 4.4576787838148872e+00 -3.7422122711010184e+00 1.4142505352439759e+01 3 1 0
531 2 7.6698011649561764e+00 -4.6891706928659387e+00 1.3702051512946047e+01 -1 0 0
567 2 -4.4463241139405190e+00 -2.4946267924412520e+00 1.7658870372209186e+01 0 0 2
1266 2 -2.1758989032291525e+00 5.9730333979967618e+00 8.8432861360780777e+00 4 0 0
1676 2 7.1743213359941009e+00 -1.9465960659210286e+00 4.9416072317982520e+00 1 1 -2
1809 2 6.5525335429009850e+00 -2.4559561089436821e+00 1.4760496813722144e+01 -2 1 -1
1675 1 7.3450423752873526e+00 -2.7890692209162693e+00 4.5032986701159512e+00 1 1 -2
145 1 7.8479250715435107e+00 -5.1499863980338043e+00 5.8225388824348503e+00 1 1 3
436 1 5.3111809245528594e+00 8.1824268485116995e+00 1.8676351355314580e+01 1 0 -3
1959 2 4.6232925474741382e+00 -7.8327349921159417e-02 3.5657791725657888e+00 0 0 2
986 2 -3.9168053524542890e+00 6.7078787496882040e+00 1.2278605751704287e+01 2 0 0
1807 1 6.2651017002002831e+00 -2.1610272276023412e+00 1.5640034019757511e+01 -2 1 -1
1677 2 8.1500833219183377e+00 -2.5091065017271501e+00 3.9531948768758700e+00 1 1 -2
1578 2 4.6284195432369373e+00 4.3792424494814597e+00 9.6038110777780634e+00 2 1 -1
1576 1 4.7016757267526978e+00 3.9723975867888406e+00 8.7353842979749725e+00 2 1 -1
1577 2 5.5991324512005836e+00 4.1387791455863567e+00 8.3990488010308617e+00 2 1 -1
1202 2 -1.1370079663035062e+00 -3.5410210792337828e+00 1.8930394593807748e+01 2 0 1
688 1 1.6075036293715417e+01 3.7862560231255245e+00 1.4060612093055951e+00 -2 0 0
301 1 -2.5949790863508273e+00 4.7591798087774642e+00 1.8771535308987310e+01 1 0 0
1897 1 -5.5757174102564822e+00 1.5440121938171973e+00 1.6324439030113130e+01 -2 1 -2
1207 1 1.0752797324198964e+00 -1.9582399305253313e+00 1.7782768741666864e+01 2 0 2
206 2 7.3592791010697036e+00 -2.5096839994574203e+00 1.7033762686350258e+01 4 0 2
551 2 1.5527803704017845e+01 -3.4411130934847645e+00 3.0961278830684860e+00 0 0 1
2005 1 9.0204895154555498e+00 4.3079923521261083e+00 8.3632956650818215e+00 0 1 2
1899 2 -4.6173384488856994e+00 1.1793343751928802e+00 1.6394056931301726e+01 -2 1 -2
1541 2 -4.1660370126207775e+00 7.0811069567472487e+00 1.6255858698868696e+01 2 0 2
1531 1 4.8227053509319804e+00 -2.5270829995851303e+00 1.2952951319898929e+01 3 0 1
1264 1 -1.3942933305485676e+00 6.0208525572395111e+00 8.2867555930496355e+00 4 0 0
1900 1 1.0022620925230141e+01 4.1812343374009213e+00 5.9868070212677535e+00 -2 1 1
1383 2 2.8707074750053891e+00 7.9449132898415087e+00 1.1747933131028534e+01 1 1 -1
482 2 -4.9561151958098648e+00 -4.5526586030869236e+00 1.7477842437472034e+01 -3 -1 -1
53 2 1.3590400930552679e+01 -3.1317431610444846e+00 2.1033653307628493e+00 3 0 1
1037 2 1.1914774740466221e+01 3.3858580003710976e+00 7.6269849610174045e-01 -2 -1 -2
226 1 5.4812418654988742e+00 -1.3073971772778807e+00 1.8706881592083477e+01 1 0 -3
26 2 1.1692897777910058e+01 1.6754578269419369e+00 9.6185941857190258e+00 -1 0 -1
1391 2 8.8511245389402804e-01 -3.4500361424643442e+00 1.0436348416711711e+01 0 0 -2
1552 1 1.0674137755881407e+01 -4.1930816061848653e-01 1.6505013142332995e+01 2 0 1
652 1 9.2990219278120145e-01 9.4773804794553307e-01 5.5231615623447654e+00 1 0 -1
515 2 1.1907125049657255e+01 2.2688018967128416e+00 4.0287056456303931e+00 2 0 1
25 1 1.2196664797981425e+01 2.4131833333461890e+00 9.2080411630092165e+00 -1 0 -1
1296 2 7.7592747782629958e+00 4.1704714043261255e+00 1.5888124282072583e+01 3 0 1
1963 1 4.5820435517179066e+00 -4.3602111312430649e+00 1.4950515887473642e+01 3 1 0
1881 2 7.2931103165378097e-02 1.8165296868887459e+00 1.2778879102576152e+01 -3 1 -6
1719 2 1.0341444483548004e+01 1.2575025393688808e+00 6.0163290980274819e+00 0 0 -1
1757 2 1.5581899588044312e+01 3.7165401944427003e+00 6.2626314249887480e+00 -1 1 -2
1532 2 4.2920185178923420e+00 -1.7572923279246071e+00 1.3238613268300448e+01 3 0 1
410 2 5.5004314226000339e-01 5.6124043554188958e+00 1.2518281622875509e+01 -1 0 -5
1074 2 1.5176691806601774e+01 7.7052615549913099e+00 3.3851799634654443e+00 2 0 3
878 2 4.2638418133414424e+00 -2.4610236997243367e+00 3.3133918379184868e+00 -2 0 1
728 2 1.5510231109386539e+00 8.5145033806146273e+00 5.5739302261065617e+00 -2 1 1
1472 2 -1.0328893000157153e+00 4.6173818825441462e+00 7.5645818463523273e+00 -1 1 1
1775 2 5.9972701721235646e+00 5.4632570088649857e-01 1.8011052201441515e+01 2 1 0
1956 2 1.8655161632458470e+00 -4.7876321678167342e+00 6.5474523456419043e+00 1 1 2
1209 2 1.9091858237606854e+00 -2.4177000043257788e+00 1.8027588109683197e+01 2 0 2
205 1 7.5381950599720602e+00 -2.7883525176731481e+00 1.7950120463690276e+01 4 0 2
1218 2 9.1937196297820982e+00 5.3452602806103666e-01 1.6316055328654592e+01 -2 1 -1
1697 2 2.0782884526587990e+00 -1.2361036089359132e+00 3.8250354909705084e+00 -2 1 1
63 2 1.2274169640856790e+01 6.1608172367327150e+00 6.2755422457304668e+00 1 0 1
244 1 7.9768727689776924e+00 5.8531835790026587e+00 5.0269808803328004e+00 -6 0 -6
729 2 1.1762954063613473e+00 7.7539415238924043e+00 6.8178997229909992e+00 -2 1 1
59 2 2.8052901084538924e+00 3.9383721108907022e-01 7.9825608423009671e+00 -1 0 -2
915 2 1.0662061495239133e+01 -4.8551933604737858e+00 1.4992230873700864e+01 -3 0 2
1722 2 9.9166256331925258e+00 8.2003272223081360e+00 1.0506115269705335e+01 -1 1 2
1509 2 7.8839851384689066e+00 -2.1249553866157385e+00 1.0823840515733027e+01 1 1 0
731 2 1.6016221113192351e+01 5.4612241426487191e+00 2.8056118671151911e+00 2 0 3
1438 1 7.0003432396871013e-01 -1.2563079882863333e+00 1.3179634738385523e+01 1 1 -2
922 1 5.3472425185096419e+00 -3.4940183776569933e+00 2.7043160904518206e+00 -5 1 -2
1029 2 1.0280432289384352e+01 -3.6019483508800549e+00 1.0570760803592958e+00 0 0 0
62 2 1.0849419563287181e+01 5.6971563486505730e+00 6.3780843148521411e+00 1 0 1
1957 1 5.3050070954062249e+00 5.4207059991982387e-01 3.9140851275815223e+00 0 0 2
1887 2 -3.4329569614032818e-01 5.5813796501125470e+00 1.4121455334906858e+00 -1 1 0
924 2 6.0013603068750472e+00 -3.1514592242376511e+00 3.3272397782351129e+00 -5 1 -2
1751 2 -1.3871595124826221e+00 -3.5698265534297917e+00 1.5589643213818404e+01 -2 1 -1
54 2 1.2182566486076510e+01 -3.9011686364495421e+00 1.9888944119423324e+00 3 0 1
690 2 1.6988601819813582e+01 3.4419718550371297e+00 1.3562025225837979e+00 -2 0 0
1217 2 7.8103733891851821e+00 1.3147504315726026e+00 1.6479962873498074e+01 -2 1 -1
678 2 1.2145488397594638e+01 -4.6337671433911289e+00 9.6931137927188828e+00 -3 0 0
61 1 1.1465322802357807e+01 6.3580424597586145e+00 6.7492586568383821e+00 1 0 1
246 2 7.2869712098851549e+00 5.8612933884734453e+00 4.3017575456316246e+00 -6 0 -6
302 2 -2.6073483501076669e+00 5.6948614215548385e+00 1.8702150212274770e+01 1 0 0
1027 1 1.0516306791262448e+01 -4.0860487313174403e+00 1.8501932562300694e+00 0 0 0
1958 2 4.7997209340761566e+00 1.2599032599108329e+00 4.2907484919525904e+00 0 0 2
1937 2 -2.6609623832579055e+00 4.1116788049096176e-01 1.5370464963859744e+01 -1 1 0
1387 1 2.5429030422351486e+00 3.2525376323008093e-01 1.7603867230015904e+01 1 1 0
52 1 1.3127269051664944e+01 -4.0226274727084501e+00 2.2518187769436531e+00 3 0 1
1898 2 -5.4938481927417975e+00 2.2699119746099869e+00 1.6988446881693235e+01 -2 1 -2
1660 1 -4.7902828096019023e+00 3.4713521336273558e+00 1.7863073907502237e+01 5 0 0
989 2 9.0563227130424231e+00 3.9089614153749057e+00 1.3276048384091004e+01 -3 0 -3
1508 2 7.7735605047889740e+00 -1.3142899521420031e+00 1.2061027714497834e+01 1 1 0
700 1 6.5584120813257201e+00 7.6258346724827462e+00 9.1853219458893971e+00 -3 0 -3
1440 2 3.2515521894122568e-01 -3.5816777387746956e-01 1.3306040570936251e+01 1 1 -2
1439 2 1.9589151018932327e-01 -1.6849386444623473e+00 1.2494014311060072e+01 1 1 -2
1811 2 9.8027365639028439e+00 8.3105825702241933e+00 3.7014445991119000e+00 0 1 0
990 2 8.2495857215880868e+00 3.2941206209701246e+00 1.2018725613709044e+01 -3 0 -3
247 1 6.4247443681721679e+00 -5.2210183217953725e+00 1.7428075757638023e+01 0 0 2
1388 2 1.9169612769189159e+00 -4.1987964867569172e-01 1.7539412996305010e+01 1 1 0
1451 2 6.1754758403187076e+00 5.3393387279424065e+00 2.6209338361369756e+00 0 1 -1
1698 2 6.0971312804350331e-01 -1.5954376963324113e+00 3.9877089998496418e+00 -2 1 1
1222 1 -3.1391793970134811e+00 -9.7867112171209669e-01 1.8487198173168355e+01 0 1 1
1223 2 2.9256023094794696e+00 -8.7623511250300989e-01 1.1753336818508633e-01 0 1 2
923 2 5.5114922697442257e+00 -3.1478717859260996e+00 1.8519326086454651e+00 -5 1 -2
1216 1 8.4331858325278297e+00 9.2136649046882990e-01 1.5806368344951556e+01 -2 1 -1
303 2 -3.4419075974941693e+00 4.3113765893119069e+00 1.8593058239824405e+01 1 0 0
1507 1 7.4555681935226996e+00 -2.1265141856505285e+00 1.1735265544650161e+01 1 1 1
1500 2 6.3987281116835404e-01 -3.6254481432621599e+00 5.0426801880749528e+00 -1 0 1
1389 2 3.3024082624592257e+00 9.3673853127146600e-02 1.7015090088492883e+01 1 1 0
988 1 8.5549281029952819e+00 4.1527788254694915e+00 1.2437892932555037e+01 -3 0 -3
56 2 -3.3602989163227552e+00 -2.9113440891880820e+00 1.3849427714943722e+01 -1 0 2
1315 1 9.0212890911989891e+00 7.2991998648595509e+00 8.6491816277204538e+00 0 0 -1
409 1 1.0772095504204895e+00 5.3857747626412991e+00 1.1645939157909215e+01 -1 0 -5
411 2 8.7552588350141303e-01 6.1525820486060265e+00 1.1085643005631535e+01 -1 0 -5
1392 2 9.9132376358902174e-01 -5.0521478070403685e+00 1.0021090068764803e+01 0 0 -2
1774 1 6.7492766190491453e+00 1.2414843211987634e+00 1.7856596193625442e+01 2 1 0
1696 1 1.1805955053784307e+00 -8.3260307119248367e-01 3.7531838560340280e+00 -2 1 1
1010 2 -4.4324660820157469e-01 8.1037539186071221e+00 1.5438483366599691e+01 0 1 0
860 2 -3.6703329341899114e+00 5.5139972153351522e+00 1.4938075513571169e+01 -3 0 1
1678 1 3.7348173142669632e+00 4.8818229830730271e+00 1.1279593979288766e+01 -1 0 0
1429 1 9.0540181234780164e+00 3.5917039394968064e+00 3.2648304076110479e+00 1 1 -2
11 2 7.4366540627282562e+00 5.2209116451028059e+00 1.2956137612358770e+01 -1 0 0
1257 2 8.8779432242098100e+00 5.8811569117226270e+00 1.7955492843709678e+01 0 0 -1
146 2 7.5510961816004034e+00 -4.3243267493678941e+00 5.4304617100501602e+00 1 1 3
1303 1 6.0419253654066392e+00 4.2731629208375157e+00 1.5015638311442034e+00 1 1 1
877 1 3.7525556732774863e+00 -1.7174043689348784e+00 3.7599831271036086e+00 -2 0 1
1239 2 4.5381690707206443e+00 3.7931409433722223e+00 1.2078312647323097e+01 1 1 -3
358 1 -7.0523461921526476e-02 7.5830862321701868e+00 1.7032314732020474e+01 1 1 -2
106 1 3.1616248907681204e+00 -3.7308661928314457e-01 1.3412232786876366e+01 -2 0 -2
1215 2 7.3671090815867180e+00 1.2143255123777621e+00 1.2068623478253627e+01 -1 0 1
1198 1 5.1439129451415662e+00 7.1517592111517185e+00 1.1554832738879965e+01 -2 1 -1
1314 2 3.4665858933133413e+00 6.7737380627982162e+00 1.1498003122258835e+00 0 1 0
381 2 7.2819942783086882e+00 8.5627563789532370e+00 1.5145070638444819e+01 -2 0 -2
1667 2 1.1146572478600174e+01 -1.4605522559727624e+00 1.3503277923908303e+01 -2 1 -4
1542 2 -4.7592240952662888e+00 8.2364441353708351e+00 1.6989925822399034e+01 2 0 2
935 2 1.9309567667077401e+00 4.0700331305405442e+00 1.8945696332896208e+01 -5 0 -3
453 2 7.1452250085675661e-01 1.9329352760077620e+00 1.3032632803540518e+00 -3 1 -2
1766 2 2.5490462068764517e+00 6.3856242486115580e+00 7.7079451901139233e+00 4 0 5
1902 2 9.4804901312633465e+00 4.2992924940467532e+00 5.2187793385478178e+00 -2 1 1
1750 1 -2.0911891736462724e+00 -4.1097081173228744e+00 1.5997330055523552e+01 -2 1 -1
197 2 9.3859735355901854e+00 5.9245456972055823e+00 3.4955971052113362e+00 -4 -1 -2
380 2 7.4969647223430416e+00 7.4680399516051494e+00 1.4009311564058470e+01 -2 0 -2
879 2 3.8000801116601384e+00 -1.8873722168992102e+00 4.7272231456529159e+00 -2 0 1
1477 1 1.0244628604351860e+01 8.4235687121546956e+00 1.8552161525803776e+01 -1 1 -1
1681 1 2.3489387187459254e+00 4.0848840469680088e+00 3.0701419706693236e+00 2 0 0
566 2 -4.9006669755089991e+00 -2.6834709224971389e+00 1.6109967562225130e+01 0 0 2
1301 2 3.7341839318264016e+00 7.7878395039095505e+00 4.5855624107630337e+00 2 0 -1
1295 2 7.4902500045532596e+00 4.5799517854864717e+00 1.7217611647980767e+01 3 0 1
563 2 6.2983975034015369e+00 -6.1577510732657803e-01 6.7056800828767376e+00 -4 1 -2
655 1 1.4680476404650488e+01 2.1711285748689173e+00 2.9827534470444443e+00 -3 0 -1
2008 1 1.3683847697152975e+00 2.8641751449528385e-01 1.4520222768234836e+00 1 0 0
1732 1 1.1943843062560951e+01 1.6599432831532663e+00 1.3767426451819651e+01 -3 0 3
1828 1 1.0606172095706651e+01 -8.3074325521055759e-01 1.9048779603650821e+01 1 1 2
408 2 5.1095167693401748e+00 -6.8903197472336153e-01 1.5677232927010008e+01 -3 0 -4
1661 2 -5.2093665792015589e+00 3.2006800670916711e+00 1.8710205002335986e+01 5 0 0
296 2 1.5243120875180169e+00 3.8127132241811328e+00 1.5286124435462552e+01 5 0 4
1665 2 1.5217990538527346e+01 2.8119556695320664e+00 2.3953465180575524e+00 -3 1 -1
227 2 6.3103950150059127e+00 -1.8679328223565217e+00 1.8597492259147501e+01 1 0 -3
713 2 -3.2316470378208075e+00 1.5118107733139574e+00 1.3556824024090824e+01 2 0 4
2009 2 6.6255642921249946e-01 -7.6158317645845131e-02 8.6086800234020211e-01 1 0 0
1327 1 1.4993935191652065e+01 4.5418794375738702e-01 9.6478611670075543e-01 -2 0 0
1055 2 1.1367880695673254e+01 8.0761253705350065e+00 6.3017342837198589e+00 -2 0 1
1930 1 8.7166353984359226e+00 1.6352038525663382e+00 9.3463516628114931e+00 2 1 0
978 2 1.4309982186037466e+01 6.2414069677327220e+00 5.4657599690039209e+00 -1 0 -1
1651 1 9.4257461478643769e+00 1.0142168710871733e+00 1.0879153436868945e+00 -1 0 2
398 2 1.3427760901525529e+01 -1.2729572081485556e+00 7.5490224406186046e+00 2 0 1
1492 1 4.5911480500138602e+00 5.7014369524007620e+00 1.7813007271955900e+01 -3 1 -2
396 2 -4.2017751687578375e-01 6.7556684118653454e+00 1.3988021938829441e+01 -1 1 -3
513 2 9.9529242686929926e+00 -2.9180571345268320e+00 2.8197689905775944e+00 2 -1 -1
1987 1 1.3163497548222495e+01 -9.6456931051201078e-01 4.5089667914562659e+00 0 1 0
1302 2 4.9438218422888589e+00 6.8399795918138970e+00 4.1407335353974588e+00 2 0 -1
229 1 9.0392474037180754e+00 5.5401416115782354e-01 6.8207482063293385e+00 2 0 -2
439 1 3.9592020420299034e-01 2.7291560650393443e+00 1.1365616647736973e+01 1 0 -1
1073 2 1.4216703222966782e+01 7.9002921927232812e+00 2.2429411678679116e+00 2 0 3
1276 1 5.6993360514523346e+00 -9.4536758821789846e-01 8.5420858026457172e+00 1 1 2
653 2 8.9385890791413525e-01 2.3591863572239813e-01 4.8910504751831114e+00 1 0 -1
1993 1 -3.0711794584192962e+00 7.0691739603100920e+00 1.2019048216293214e+01 2 1 0
1858 1 -1.7221687855280661e+00 -4.6711659672806434e+00 8.3831830623882926e+00 -1 1 -1
1733 2 1.2283414323592641e+01 1.6618970727151465e+00 1.4677877241304683e+01 -3 0 3
658 1 1.0868855634298040e+01 -7.4051331692879163e-01 1.2902519082102879e+01 -2 0 -4
1411 1 -2.5688952527845821e+00 -4.0994103242110613e+00 1.0822391918901118e+01 0 1 -1
665 2 1.6826423474105514e+00 1.9234468918240504e+00 1.6501742848499092e+01 1 1 4
664 1 1.0779687875910646e+00 2.3624746807265433e+00 1.5896458985698136e+01 1 1 4
125 2 6.5720329180902421e+00 5.3406756981077432e+00 6.3277125780208729e+00 0 1 2
343 1 4.9810274483208934e+00 2.7117758785218848e+00 1.5065939797276851e+01 0 0 0
345 2 5.4605064002361710e+00 3.2182823836794032e+00 1.5744663778445403e+01 0 0 0
1938 2 -2.1978689522316661e+00 -6.5285900873162461e-01 1.4271023960294571e+01 -1 1 0
1954 1 1.4805711395992440e+00 -5.0386344864990358e+00 5.7234874088070997e+00 1 1 2