LAMMPS data file via write_data, version 3 Mar 2020, timestep = 1000000

1008 atoms
2 atom types

2.2576076292894598e-01 1.8173794237063738e+01 xlo xhi
-5.5570932711592747e-03 2.2575946093264957e+01 ylo yhi
1.5700479636127262e-01 1.9348711203631126e+01 zlo zhi
2.9657866681912073e-02 -6.5988227502362289e+00 -4.7275236143875618e-02 xy xz yz

Masses

1 16
2 2

Atoms # atomic

1 1 6.4948933543026452e+00 8.6508749081132497e-01 4.7085915532896863e+00 0 0 0
275 2 1.0119827613846466e+01 9.4804659839205812e+00 9.6187039833044174e+00 0 0 0
3 2 6.6999878694349988e+00 1.0244345620473925e+00 3.7996175888142525e+00 0 0 0
4 1 3.7132112706642255e+00 1.2405309898276262e+00 5.1564722492930315e+00 0 0 0
5 2 4.6095502225510767e+00 8.2449561030904972e-01 4.8521606710436469e+00 0 0 0
6 2 3.9582182057590964e+00 1.6331234098804710e+00 5.9952878278077977e+00 0 0 0
7 1 -5.6852175379230097e-01 6.5959994690188388e+00 4.9426729418675004e+00 0 0 0
8 2 -6.0529798790091149e-01 6.1866854581149386e+00 5.8169798132708950e+00 0 0 0
9 2 1.6512235800969041e+01 7.0995202198365881e+00 4.8397638937064569e+00 -1 0 0
10 1 2.1365086893194496e+00 6.6161850121816252e+00 4.8772494487183637e+00 0 0 0
11 2 1.2040239597933564e+00 6.8803584419993555e+00 4.9239001868466810e+00 0 0 0
12 2 2.6988196211197693e+00 7.4197399996864268e+00 5.0281434179881659e+00 0 0 0
14 2 4.9500373107581392e+00 5.0431658313706400e+00 8.9919250032106497e+00 0 0 0
399 2 7.7631487342948349e+00 3.5159296785867949e-01 1.1926099984186878e+00 0 0 0
133 1 1.5571029445496253e+01 3.5430657374873249e+00 6.6074674677785028e+00 0 0 0
18 2 5.5609275052667151e+00 5.3143191770588265e+00 1.0466512337207510e+00 0 0 0
691 1 -2.1454555993235402e+00 1.0307952080255031e+01 9.7102200713798847e+00 0 0 0
485 2 1.0357571469907626e+01 8.2363857983321728e-02 8.0109941927406361e+00 0 0 0
21 2 8.2578880965125989e-01 2.3835859519037847e+00 1.3383078909575417e+00 0 0 0
523 1 -2.0272678596289979e+00 2.6538282163060978e+00 9.6195914366916586e+00 0 0 0
135 2 1.5708199544348213e+01 2.7409117111069508e+00 6.0514854044033113e+00 0 0 0
32 2 2.1185575526593761e+00 1.0905550099829688e+00 2.5355325747142601e+00 0 0 0
25 1 4.9446853797696013e+00 6.1296704272768281e+00 7.4044449493436932e+00 0 0 0
26 2 5.5740328973772604e+00 6.8098989747102117e+00 7.6981249724695555e+00 0 0 0
27 2 4.0411225852127384e+00 6.4315112343473695e+00 7.6465641254726062e+00 0 0 0
28 1 5.6397181358373611e+00 6.4847838868942649e+00 2.4469812400403304e+00 0 0 0
29 2 5.4991346178378260e+00 6.3129331692754249e+00 3.3827315687391533e+00 0 0 0
30 2 4.9671606062322757e+00 7.2255890274584464e+00 2.3146488058024453e+00 0 0 0
31 1 1.1793240386620689e+00 1.2963039306114565e+00 2.6931074866135414e+00 0 0 0
86 2 1.6246681470353874e+01 5.3812686570474477e-01 5.0632972195636166e+00 0 0 0
33 2 1.0623647796840998e+00 1.5185643637236348e+00 3.6457959575539509e+00 0 0 0
34 1 5.5657496028439413e-01 1.0133835016677371e+00 7.4804448955518659e+00 0 0 0
187 1 1.0305352201994795e+00 1.0162668460921035e+01 3.9470304324702687e-01 0 0 0
36 2 4.5451528302289068e-01 1.8346945642235812e+00 8.0328541434545748e+00 0 0 0
37 1 6.3016824077878741e+00 2.5986676243090527e+00 2.3739832539842904e+00 0 0 0
38 2 5.4550399170544308e+00 3.1217661053898276e+00 2.5153668925365258e+00 0 0 0
39 2 6.9710112692337241e+00 3.2471857497703649e+00 2.6770676855030850e+00 0 0 0
40 1 4.5854241509931857e+00 2.5168278771130113e+00 7.5180857845464759e+00 0 0 0
41 2 5.4889814471306817e+00 2.6404520999862133e+00 7.1472045081561628e+00 0 0 0
42 2 4.1166055417680880e+00 3.2731384392260878e+00 7.1735938821063243e+00 0 0 0
43 1 5.9652101565713433e-02 4.8709264323840777e+00 7.6050132338268233e+00 0 0 0
44 2 -6.3629020963471827e-01 4.2506611808748378e+00 7.3064418926055650e+00 0 0 0
45 2 -2.1854880119790510e-01 5.3392785331106127e+00 8.3848196134080055e+00 0 0 0
46 1 1.8771073914195411e+00 5.1851061548450206e+00 2.5562662403588394e+00 0 0 0
47 2 9.3896455365362719e-01 5.0143034747430946e+00 2.5367161798142921e+00 0 0 0
48 2 2.0509883732395719e+00 5.6341096348059478e+00 3.4668018226168589e+00 0 0 0
49 1 6.8853316155379378e+00 3.2235802341409334e+00 6.3210532495843310e+00 0 0 0
50 2 6.4702863904981101e+00 3.9058206244285794e+00 5.7117308348323625e+00 0 0 0
51 2 6.9909675581762505e+00 2.3860512915966861e+00 5.8922734315656173e+00 0 0 0
52 1 3.8351141443651611e+00 3.4716033245290330e+00 3.4217036355646471e+00 0 0 0
53 2 3.0942965702546559e+00 4.0396165603433269e+00 3.2047905121113085e+00 0 0 0
54 2 3.5198134553820744e+00 2.7626958024870683e+00 3.9891140981456630e+00 0 0 0
55 1 -5.9781050840632388e-01 4.3038693211217591e+00 3.4673227854994746e+00 0 0 0
56 2 -5.3989179980996049e-01 5.2399077605809472e+00 3.9154500387605804e+00 0 0 0
57 2 -2.3730129580157378e-01 3.7260782189530461e+00 4.1051847271271829e+00 0 0 0
58 1 2.5399640132590182e+00 4.3083556565309031e+00 6.4920679556371850e+00 0 0 0
59 2 2.6578202688328108e+00 5.1785271878446180e+00 6.0058145884151113e+00 0 0 0
60 2 1.7611399787074991e+00 4.5644105238747672e+00 7.0523229454535343e+00 0 0 0
61 1 8.2794978940139412e+00 6.8653370983000164e+00 1.7983576563358210e+00 0 0 0
62 2 7.3871490910485438e+00 6.7081608417688647e+00 2.2476997043150480e+00 0 0 0
63 2 8.3215664640782876e+00 6.0565751554469651e+00 1.2052057178616316e+00 0 0 0
64 1 2.4335226617885035e+00 7.1544710492043597e+00 8.5588660679598370e+00 0 0 0
65 2 1.7635974828321594e+00 7.5896954162455348e+00 7.9951615536913785e+00 0 0 0
66 2 2.8756198446379249e+00 7.7908378941872822e+00 9.1171099243471581e+00 0 0 0
271 1 1.0163050176028966e+01 9.8770812286418455e+00 2.5980844815561843e-01 0 0 0
68 2 -2.4777088254994775e+00 1.1021359244828555e+00 8.7248089002613352e+00 0 0 0
606 2 1.0969834362342521e+01 3.9272977164566063e+00 9.6935082302575228e+00 0 0 0
72 2 4.0357345228635966e+00 1.2644939375924502e+00 1.2633018584167304e+00 0 0 0
73 1 5.4451671752982440e+00 4.9137846125699500e+00 4.8688414071918258e+00 0 0 0
74 2 5.0125800120243271e+00 5.2006671369699786e+00 5.6928064706612984e+00 0 0 0
75 2 4.7803991878305734e+00 4.3778391295218970e+00 4.3180302016326531e+00 0 0 0
76 1 5.4717978636466968e-01 2.5590676424284915e+00 5.2133835281327885e+00 0 0 0
77 2 5.8784547602866732e-01 1.8948986311528349e+00 5.9471789239626585e+00 0 0 0
78 2 1.1022296416820700e+00 3.2424734534662147e+00 5.5462173517389672e+00 0 0 0
80 2 6.7526718173650977e+00 2.1373714653808729e+00 8.8201903202947385e-01 0 0 0
83 2 2.4660481688840887e+00 5.8344323150632142e+00 9.5941354948945956e-01 0 0 0
154 1 1.3067653820670014e+01 6.9792849480818819e-01 1.4041023164309121e+00 0 0 0
85 1 1.5588924641661549e+01 1.2865459055277864e+00 4.9332171464354557e+00 0 0 0
87 2 1.5785491772143729e+01 1.8170968677045829e+00 4.1110558069623053e+00 0 0 0
88 1 1.2792917330846796e+01 9.5072975880014998e-01 4.9883104117882135e+00 0 0 0
89 2 1.2644774774444260e+01 1.7778057316440294e+00 4.4760437721897661e+00 0 0 0
90 2 1.3757214460910085e+01 8.6364521063307398e-01 4.8559849058577562e+00 0 0 0
91 1 8.3287550801566912e+00 6.3119549680889913e+00 5.1558425264626333e+00 0 0 0
92 2 8.0776182985272413e+00 5.4894400957015215e+00 4.7204272734996957e+00 0 0 0
93 2 9.2867804058647039e+00 6.5747900071629894e+00 4.8543910524841207e+00 0 0 0
94 1 1.0912140912970310e+01 6.5529694230304631e+00 4.6425169078034179e+00 0 0 0
95 2 1.1612155661864481e+01 7.2769261146840698e+00 4.8065129916621103e+00 0 0 0
96 2 1.1218994534864283e+01 5.8015379283205935e+00 5.2988587269023943e+00 0 0 0
152 2 7.6018107572191740e+00 1.0385917797691395e+00 7.8396647929810506e+00 0 0 0
293 2 1.2292152869826662e+01 1.0702264793977623e+01 7.5579858234147315e+00 0 0 0
189 2 1.9820700646023490e+00 1.0432868877865493e+01 2.4911981022029375e-01 0 0 0
101 2 1.4474860405963888e+01 4.8824998833384230e+00 1.1880343694251039e+00 0 0 0
156 2 1.2261678082081021e+01 7.8750418479493101e-01 1.9363067827832841e+00 0 0 0
776 2 7.6941978599187459e+00 1.0816798530674701e+01 9.7162263377183411e+00 0 0 0
69 2 1.4924511053209471e+01 1.2001632626000355e-01 7.7419660352370245e+00 0 0 0
693 2 -1.2094724394693592e+00 1.0522796719455942e+01 9.6897318353633306e+00 0 0 0
109 1 1.3896510477133699e+01 6.6163910096719203e+00 7.3862910390236944e+00 0 0 0
110 2 1.3993188157391042e+01 5.8661485894118588e+00 8.0917116548100800e+00 0 0 0
111 2 1.2909159114042007e+01 6.7897183361163584e+00 7.3402963820001608e+00 0 0 0
112 1 1.4982165829038838e+01 6.4766044668277090e+00 2.5939758192356748e+00 0 0 0
113 2 1.4342517598313304e+01 7.1450355313783120e+00 2.2349585764249182e+00 0 0 0
114 2 1.5855696078922099e+01 6.7771783036777773e+00 2.2553491482980665e+00 0 0 0
115 1 1.0335572390980232e+01 9.9211309733671327e-01 2.7404424150420050e+00 0 0 0
116 2 1.0246548948023051e+01 1.6931815304548514e+00 2.1250417104048616e+00 0 0 0
836 2 1.3145606286686304e+01 9.2307819098686128e+00 9.3871074960757159e+00 0 0 0
118 1 9.2452354290411662e+00 1.5596971795913188e+00 7.6385486731806216e+00 0 0 0
119 2 9.5638378124790968e+00 2.1355237190145822e+00 8.4174951380568359e+00 0 0 0
120 2 9.5452188476311530e+00 2.0101470349307062e+00 6.8028037792156235e+00 0 0 0
121 1 1.5400874683435049e+01 2.8447274011941825e+00 2.6476160256646581e+00 0 0 0
122 2 1.6082217240203818e+01 3.4961022710615892e+00 2.8926368010679937e+00 0 0 0
123 2 1.5599456107839664e+01 2.4893700944798391e+00 1.7224517838760585e+00 0 0 0
124 1 1.3159613882384235e+01 2.5046577075945695e+00 7.4251875429500771e+00 0 0 0
125 2 1.3965810723436825e+01 3.0015211612785437e+00 7.2876919727695988e+00 0 0 0
126 2 1.3157067639825616e+01 1.7835986401836919e+00 6.8051226340842161e+00 0 0 0
127 1 8.7207734274449393e+00 4.9005461038626450e+00 7.5058460163716045e+00 0 0 0
128 2 8.1966406712756026e+00 4.1683740075861646e+00 7.2051071305343930e+00 0 0 0
129 2 8.6079183443375289e+00 5.5635429520356157e+00 6.7982829245059264e+00 0 0 0
130 1 1.0891521449322173e+01 5.2990280533687510e+00 2.3173334432914743e+00 0 0 0
131 2 1.1313048312391599e+01 4.5121439432169792e+00 2.6466267501183762e+00 0 0 0
132 2 1.0876600839130351e+01 5.9229417828252320e+00 3.1227211554186631e+00 0 0 0
134 2 1.5278337273349594e+01 4.1809701290088528e+00 5.9161956140670888e+00 0 0 0
136 1 1.2884555743667029e+01 3.4401480867498768e+00 3.6592799856723373e+00 0 0 0
137 2 1.3371812265854398e+01 4.1151524229302918e+00 4.1949983557235537e+00 0 0 0
138 2 1.3699844629454164e+01 3.1384116804823661e+00 3.2793509682590036e+00 0 0 0
139 1 8.4057109857507921e+00 3.9547036390931907e+00 3.2533213010424018e+00 0 0 0
140 2 9.0464508653615336e+00 4.5828486407274784e+00 2.8473212711025915e+00 0 0 0
141 2 8.9588877445022508e+00 3.4072529173808492e+00 3.8267766853882850e+00 0 0 0
142 1 1.1438609470889578e+01 4.4308726310106650e+00 6.4442702815984179e+00 0 0 0
143 2 1.2050665578105935e+01 3.8275571047724393e+00 6.9149323720067759e+00 0 0 0
144 2 1.0614066810502104e+01 4.6068882835775700e+00 6.9298378959381282e+00 0 0 0
147 2 1.6981352428424589e+01 7.8112283654933714e+00 9.8968767462965945e-01 0 0 0
148 1 1.1239100874841480e+01 7.0752538001622218e+00 7.9499314205836260e+00 0 0 0
149 2 1.1254839926509744e+01 6.1044976032402349e+00 8.2460204952389660e+00 0 0 0
150 2 1.1659136032676066e+01 7.6432123269187757e+00 8.6381262304545476e+00 0 0 0
219 2 6.1453363782567507e+00 1.0471200433157701e+01 7.2484551972360585e+00 0 0 0
586 1 -7.9973078275141463e-01 6.1947071679297325e+00 9.5889708097723680e+00 0 0 0
153 2 6.5695454618702502e+00 1.0934396497905712e+00 9.0102100003715293e+00 0 0 0
668 2 1.2590916180431734e+01 1.8441888822433268e+00 9.1035639215119044e+00 0 0 0
155 2 1.3169092388577640e+01 1.5008167318190384e+00 8.8177358286273533e-01 0 0 0
117 2 9.6100248201310610e+00 3.6550215078357873e-01 2.5096234053956596e+00 0 0 0
157 1 1.4150001045086336e+01 5.3764447738800252e+00 5.0413921640709995e+00 0 0 0
158 2 1.4323067859569495e+01 5.9418068720852615e+00 4.2657673305486261e+00 0 0 0
159 2 1.4055754660463450e+01 5.9562744969638297e+00 5.7796941852513264e+00 0 0 0
160 1 9.9713468559682834e+00 2.4588339189470334e+00 5.0920625762441327e+00 0 0 0
161 2 1.0764616638983776e+01 2.9745433526478107e+00 5.0159180010324667e+00 0 0 0
162 2 1.0172908556324904e+01 1.7757985422972407e+00 4.4294116869302087e+00 0 0 0
254 2 1.5662388100828455e+01 9.1490390517084652e+00 5.7057857626138588e+00 0 0 0
217 1 6.9562828407090276e+00 1.0509183119712501e+01 6.6929647035022413e+00 0 0 0
220 1 3.9091781223539686e+00 1.0829868429649805e+01 3.7753674617386852e+00 0 0 0
169 1 6.7998522925276150e+00 8.4843150227841342e+00 4.9171926944736857e+00 0 0 0
170 2 7.3295368691959801e+00 7.6633945088318747e+00 4.9582348151246878e+00 0 0 0
171 2 7.2057073994413612e+00 9.0558205554068962e+00 5.6221972557416136e+00 0 0 0
172 1 3.9726137751180910e+00 8.5204746943240064e+00 5.5553286217898306e+00 0 0 0
173 2 3.7906697467451265e+00 9.3448368009881531e+00 4.9846607511235668e+00 0 0 0
174 2 4.8993516391234735e+00 8.3272981006340068e+00 5.2311144393979019e+00 0 0 0
146 2 1.7328918213041373e+01 6.2430971650811298e+00 9.8644494481675582e-01 0 0 0
67 1 -2.2013172037538116e+00 3.3514759207663819e-01 8.2135520684694274e+00 0 0 0
209 2 3.4809554547704944e+00 1.0662741043871234e+01 7.4473932678818198e+00 0 0 0
192 2 6.9255429998914009e-01 9.6396940762948660e+00 8.6706185550871115e+00 0 0 0
199 1 1.2051832064723838e+00 8.7905176644985339e+00 2.8676874341671974e+00 0 0 0
200 2 1.1561556566958329e+00 9.4287698683631742e+00 2.0768474546275195e+00 0 0 0
201 2 6.9506402607442452e-01 8.0426388987709920e+00 2.5064503048723621e+00 0 0 0
202 1 3.3059775682107917e-01 8.5951347611699074e+00 7.4764715675495887e+00 0 0 0
203 2 -5.9464005747267490e-01 8.3414624794962773e+00 7.7740683261600774e+00 0 0 0
204 2 3.4362618090282515e-01 9.0746166171065159e+00 6.6301212933908173e+00 0 0 0
205 1 6.3812412967742125e+00 1.0269039736866112e+01 2.7618041625304630e+00 0 0 0
206 2 6.6213235602237788e+00 9.5623823973260347e+00 3.3527455498104386e+00 0 0 0
207 2 6.4467030789298843e+00 9.9465143573846451e+00 1.8276820232145790e+00 0 0 0
208 1 4.4502023567760380e+00 1.0359498184961618e+01 7.4993195370704617e+00 0 0 0
524 2 -2.5708191474403228e+00 3.3928360057683351e+00 9.3789390411043101e+00 0 0 0
210 2 4.4722997735736580e+00 9.6485198660513234e+00 6.7876720622768598e+00 0 0 0
304 1 1.3072274166054481e+01 1.0338107604756752e+01 3.4149539067477410e+00 0 0 0
301 1 1.5476632237436332e+01 1.0602993218910656e+01 6.5291985831558499e+00 0 0 0
100 1 1.4652151657695109e+01 4.6458167837259454e+00 2.5989208942866904e-01 0 0 0
84 2 3.0056386274993208e+00 7.1012238610460283e+00 7.6901158941939485e-01 0 0 0
671 2 8.3132962088993061e+00 5.5550595368692388e+00 9.0603487870850046e+00 0 0 0
235 1 -2.0299591447740486e+00 8.0867917301965715e+00 8.3812545013544728e+00 0 0 0
236 2 -2.1822260275193761e+00 8.9634287242622630e+00 8.8348575189309919e+00 0 0 0
238 1 3.7468885811257295e+00 8.2688153369950097e+00 2.1133561125541505e+00 0 0 0
239 2 2.9658754807916994e+00 8.5008945035597314e+00 2.6397162056305716e+00 0 0 0
240 2 3.8666350590945062e+00 9.0126620787212559e+00 1.5158121396995994e+00 0 0 0
244 1 7.6980972762799937e-01 9.8416686036712182e+00 5.2150752215568588e+00 0 0 0
245 2 9.1071191952410557e-01 9.4074381425574938e+00 4.3259007526027409e+00 0 0 0
246 2 1.6039142523557510e+00 1.0335910737384980e+01 5.3936447371428846e+00 0 0 0
70 1 3.8626395104993683e+00 4.0784243742495457e-01 1.6508282385977711e+00 0 0 0
753 2 4.4230777048478931e+00 9.5101824743015069e+00 9.2928866284724787e+00 0 0 0
253 1 1.5500159122092166e+01 8.4916878111780250e+00 4.9613012429310182e+00 0 0 0
255 2 1.5364239781982899e+01 9.0586777613424978e+00 4.1454032669276710e+00 0 0 0
256 1 1.2757719688176962e+01 8.3156572244940339e+00 5.4258282831250852e+00 0 0 0
257 2 1.3696488934808251e+01 8.0383372305672793e+00 5.3742375277555183e+00 0 0 0
258 2 1.2725560742914256e+01 8.9668404697104371e+00 4.7215012458256860e+00 0 0 0
23 2 9.8121902109352899e-01 3.5091130431748820e+00 9.3024638449802453e+00 0 0 0
272 2 1.0047593157453987e+01 9.7324475875404506e+00 1.2632900100593489e+00 0 0 0
248 2 7.8746401967980066e+00 8.6855204891599751e+00 9.2637991647106555e-01 0 0 0
276 2 9.6459433129710348e+00 1.0294609522277030e+01 8.3853368211118759e+00 0 0 0
283 1 1.0281325316176565e+01 8.8647340320476147e+00 2.6331566055821942e+00 0 0 0
284 2 1.0320534044316281e+01 9.1757166228663589e+00 3.5610916838008952e+00 0 0 0
285 2 9.7077881880393857e+00 8.0866469019809788e+00 2.4182187860778108e+00 0 0 0
286 1 9.1225861988634342e+00 8.4891453685350680e+00 6.9940740034308995e+00 0 0 0
287 2 9.8499874984351088e+00 7.8875292892593887e+00 7.2979767322209721e+00 0 0 0
288 2 8.3236458823308226e+00 8.4689892835405214e+00 7.5737705634253816e+00 0 0 0
289 1 1.5473296222962507e+01 9.9583196808084757e+00 2.4730978755511779e+00 0 0 0
167 2 1.1270185086806313e+01 5.8540857310972578e+00 8.7298047582420768e-01 0 0 0
291 2 1.5538999405456035e+01 9.7519640191230597e+00 1.5367086045756737e+00 0 0 0
292 1 1.2934022123938098e+01 9.9911310044575021e+00 7.6516324145181080e+00 0 0 0
2 2 7.0291332029741653e+00 9.6283948563986227e-02 4.9132129503219115e+00 0 0 0
294 2 1.2912680096832567e+01 9.3634226732943517e+00 6.8606409562817445e+00 0 0 0
17 2 5.0150135405294929e+00 4.0987273257518444e+00 1.6606047438933522e-01 0 0 0
305 2 1.2593632788008589e+01 1.1038476685110172e+01 2.8656873058832004e+00 0 0 0
306 2 1.3954248444164318e+01 1.0175146112448953e+01 2.9540826111683822e+00 0 0 0
585 2 4.0469425110647679e+00 1.9535928604385264e+00 9.1202817846012483e+00 0 0 0
319 1 6.7662903285741365e+00 7.9880248964105602e+00 8.5390401243510681e+00 0 0 0
320 2 6.6748202405937151e+00 8.8214846509502252e+00 9.0026281144810145e+00 0 0 0
321 2 7.2196948127237022e+00 7.2965708830794043e+00 9.0492035841568850e+00 0 0 0
322 1 1.2966819460176893e+01 8.0315174093767521e+00 1.4934484490377620e+00 0 0 0
323 2 1.2228261382494894e+01 8.3183490949176608e+00 2.0500697270085277e+00 0 0 0
324 2 1.2624990900919158e+01 7.4057077278464956e+00 7.3076830677927429e-01 0 0 0
328 1 9.8843196160117301e+00 1.0074213841839686e+01 4.9795459110408018e+00 0 0 0
329 2 9.4888509875785605e+00 9.4047955337397759e+00 5.6017128479174705e+00 0 0 0
330 2 9.1441411213204926e+00 1.0657436010228624e+01 4.7123046569356086e+00 0 0 0
20 2 5.2170850136258129e-01 3.5848490631950356e+00 2.1925607884518863e-01 0 0 0
145 1 1.7395737172986873e+01 7.0820675371628390e+00 1.5396365085510786e+00 0 0 0
97 1 1.4184784228070253e+01 4.7187359094959085e+00 9.2949304458698077e+00 0 0 0
190 1 5.5893102695627572e-01 1.0259749382862035e+01 9.4556363737722275e+00 0 0 0
237 2 1.5148080378592512e+01 7.6876858995201500e+00 7.9890476072048902e+00 0 0 0
290 2 1.6231159249279504e+01 1.0545897623852081e+01 2.7245224156462839e+00 0 0 0
151 1 6.8658030645710584e+00 4.7916378293963879e-01 8.2582787852741362e+00 0 0 0
35 2 -3.4155121514043674e-01 6.1207514209798797e-01 7.4749394754577896e+00 0 0 0
302 2 1.4596200340752834e+01 1.0500413930311023e+01 6.9385295184672602e+00 0 0 0
221 2 4.7459084647644376e+00 1.0614614201227329e+01 3.2656863623349324e+00 0 0 0
103 1 1.0054062044130699e+01 2.7447795766319079e+00 5.3101506616388638e-01 0 0 0
311 2 1.0666238902864180e+01 1.1068428846250857e+01 6.1169203831842376e+00 0 0 0
587 2 -1.5440492946206696e+00 6.7039795804873918e+00 9.1994936327597259e+00 0 0 0
247 1 7.1613287084617827e+00 9.1616424499969185e+00 4.1443810715736851e-01 0 0 0
19 1 1.0864850030718602e+00 2.8674066473975621e+00 5.1604917583152554e-01 0 0 0
521 2 2.3471134707716317e+00 5.6195790594155213e+00 9.4055501419876908e+00 0 0 0
165 2 1.6643079382535340e+01 6.7554334709556074e-01 6.6170510225048418e-01 0 0 0
584 2 3.3229135357505966e+00 6.1978635383886838e-01 9.4538206866462335e+00 0 0 0
692 2 -2.7839649894748772e+00 1.1077807218798618e+01 9.5854542368195723e+00 0 0 0
528 2 2.8546574591357179e+00 3.0353912688132234e+00 3.7108444502909127e-01 0 0 0
99 2 1.3252970332084697e+01 4.6470421963360522e+00 9.4878278428583638e+00 0 0 0
224 2 -1.4340805019592606e-01 1.0976288747532520e+01 4.1758950491457121e+00 0 0 0
222 2 3.2538451405278677e+00 1.1141072717624072e+01 3.1143571909853125e+00 0 0 0
780 2 1.3187442242419509e+01 9.3367521226176073e+00 2.5133633267565303e-01 0 0 0
22 1 5.3167049620312401e-01 2.6318307631527236e+00 9.3285839615831492e+00 0 0 0
694 1 3.9550717831088527e+00 1.0323964586835309e+01 2.3767357423455901e-01 0 0 1
104 2 9.4840488602955588e+00 3.5062653361085112e+00 4.5186944188757339e-01 0 0 1
24 2 -4.2358994055225896e-01 2.7965471323366340e+00 9.4353740489028635e+00 0 0 0
604 1 1.1595218971037866e+01 4.6525353021487792e+00 9.6147122018291569e+00 0 0 0
82 1 2.7379826103354810e+00 6.3635481035714268e+00 2.2306217190536731e-01 0 0 1
274 1 9.6689958031124235e+00 1.0298389784744606e+01 9.3268812249479822e+00 0 0 0
401 2 1.7983790351480669e+00 1.4147942607946419e-02 7.9482234464441017e+00 0 0 0
655 1 3.2240547505686816e+00 5.1997780265214377e-01 1.7950316325391768e+01 0 0 0
98 2 1.4435806208784784e+01 5.3615504816205792e+00 9.9700457853047730e+00 0 0 0
711 2 2.1163326447828661e+00 1.0349793896668006e+01 1.2012770238174500e+01 0 0 0
797 2 1.0673282552207723e+01 1.0590152648888289e+01 1.6773872913542498e+01 0 0 0
588 2 -1.0994269841239888e+00 5.8637107424600838e+00 1.0417269936955019e+01 0 0 0
725 2 -9.0223499947036156e-02 1.1073548608494580e+01 1.2643923395958941e+01 0 0 0
164 2 8.7625328113582555e+00 7.4720728355673960e-01 1.8883028356048129e+01 0 0 0
672 2 8.8168612593249485e+00 6.4542501340541438e+00 1.0184965785370169e+01 0 0 0
778 1 6.3443748733226775e+00 9.9698929120937976e+00 1.8786294240520732e+01 0 0 0
828 2 9.1218974465810376e+00 8.1438179362886860e+00 1.1405928978106486e+01 0 0 0
612 2 5.2295547157902122e+00 2.9516582377656451e+00 1.9097277007198507e+01 0 0 -1
567 2 5.4773697543082118e+00 6.3237336244982254e+00 1.0930799491729315e+01 0 0 0
658 1 9.6160933233834864e+00 2.7047524287879238e-01 1.1434881529810788e+01 0 0 0
721 1 3.5575265993316112e+00 1.0904527885814748e+01 1.5561688386547679e+01 0 0 0
794 2 1.2581273876139175e+01 1.0453182117300234e+01 1.2319048845647970e+01 0 0 0
168 2 4.3129190186863156e+00 6.7231925426234715e+00 1.8773682903408513e+01 0 0 0
986 2 1.3326579662465658e+01 3.4813998452022116e-01 1.0715897642524737e+01 0 0 0
108 2 8.6265936812318706e+00 2.8393350416369216e+00 1.0200665225772616e+01 0 0 0
505 1 3.2217513303208909e+00 9.1426785050284898e-01 1.4680302714825453e+01 0 0 0
506 2 3.3955373221542828e+00 1.5679446296392596e+00 1.5328020061821258e+01 0 0 0
835 1 1.2629226587916047e+01 8.5452963970016000e+00 9.9159597442933158e+00 0 0 0
508 1 6.2994564421980836e-01 1.1649716169758211e+00 1.5246282330526951e+01 0 0 0
608 2 6.1692741540138041e+00 3.0665214554443643e+00 1.0286420764483266e+01 0 0 0
510 2 1.5650725016928666e+00 9.3021601200950288e-01 1.5157636912572674e+01 0 0 0
511 1 -3.6741752382840498e+00 6.6492222635100449e+00 1.4634790447482471e+01 0 0 0
512 2 -3.7512067427305062e+00 5.9902412928799995e+00 1.3943829997871422e+01 0 0 0
513 2 -3.6176334251104429e+00 6.0911562810562350e+00 1.5425563997929684e+01 0 0 0
514 1 -1.0235468025332310e+00 6.5624277925513761e+00 1.4105821478196100e+01 0 0 0
515 2 -9.8406019507094822e-01 5.8530342748734645e+00 1.4800899019619454e+01 0 0 0
516 2 -1.9579336989949851e+00 6.8802706305415047e+00 1.4207422423937377e+01 0 0 0
796 1 9.7972876159337332e+00 1.0192841420526586e+01 1.6999462319232840e+01 0 0 0
519 2 1.9370882665248859e+00 4.9027861124598662e+00 1.8338785003205210e+01 0 0 0
507 2 3.8074179153461216e+00 1.4103865827822215e-01 1.4758539894030980e+01 0 0 0
522 2 2.2778496592071655e+00 5.2397798183990618e+00 1.0945213702651529e+01 0 0 0
807 2 1.2382741024193006e+01 1.0183889622608120e+01 1.5545262219206093e+01 0 0 0
837 2 1.2431848418034269e+01 9.1136480184535476e+00 1.0728736839351955e+01 0 0 0
525 2 -2.0404488274189925e+00 2.5454855315828615e+00 1.0574534247658342e+01 0 0 0
808 1 9.5339830087653556e+00 1.0628763829608953e+01 1.3065923756280442e+01 0 0 0
527 2 -2.6777611021789882e+00 2.4319892093560669e+00 1.8496296578058136e+01 0 0 0
529 1 1.4281514664690453e+00 5.9518167089731664e+00 1.6913281692126084e+01 0 0 0
530 2 1.5856932678661533e+00 5.4320972965826115e+00 1.6054099024561587e+01 0 0 0
531 2 4.7483876099771294e-01 5.9957238398896058e+00 1.7116012524426452e+01 0 0 0
532 1 2.6907035582373853e+00 6.4468739369862389e+00 1.2218468600334443e+01 0 0 0
533 2 3.6817952011714414e+00 6.5526877410503044e+00 1.2115695114075580e+01 0 0 0
534 2 2.5267224419847381e+00 6.0381016758516459e+00 1.3085845046395182e+01 0 0 0
535 1 -2.1340331951673854e+00 1.4437574998868408e+00 1.2011268084000880e+01 0 0 0
810 2 9.0166171168918510e+00 1.1034003358372702e+01 1.2344260775573034e+01 0 0 0
777 2 6.2783759311293492e+00 1.1231271925644981e+01 1.0004387552149927e+01 0 0 0
538 1 -2.9658931720163308e+00 1.1814681139231213e+00 1.6880966177760861e+01 0 0 0
539 2 -3.8745364233603645e+00 8.2768003539928281e-01 1.7066769754983028e+01 0 0 0
540 2 -2.8828779795999302e+00 1.5111264528530675e+00 1.5951365452048389e+01 0 0 0
541 1 3.1098419048022548e+00 2.3886813413330219e+00 1.2421393785449883e+01 0 0 0
542 2 3.2283924625735638e+00 1.7312000760713102e+00 1.3127387629106368e+01 0 0 0
543 2 3.3088533597641328e+00 1.8918743766321917e+00 1.1557389705567653e+01 0 0 0
544 1 8.4168448894338788e-01 2.9578347919976191e+00 1.7229411591055459e+01 0 0 0
545 2 6.3598892948087471e-01 2.5588406362582474e+00 1.8099108185748278e+01 0 0 0
546 2 8.0033230801474353e-01 2.1808550302398002e+00 1.6660669856142292e+01 0 0 0
547 1 -3.4156792277631363e+00 4.7966443781730099e+00 1.6855744534066275e+01 0 0 0
548 2 -4.2160379804216701e+00 4.2075337774941399e+00 1.6664318652583177e+01 0 0 0
549 2 -3.4865267040765113e+00 4.9982270721407973e+00 1.7861768503823932e+01 0 0 0
550 1 -1.1361755213307640e+00 4.6901898740679178e+00 1.2043441643347574e+01 0 0 0
551 2 -6.9785391663814389e-01 3.9623173819890489e+00 1.2457391741840947e+01 0 0 0
552 2 -1.0317327564031484e+00 5.4595671293656141e+00 1.2700969153678052e+01 0 0 0
553 1 3.4347288732780834e+00 3.0820212675035141e+00 1.6361024507478589e+01 0 0 0
554 2 2.6037253790702621e+00 3.0442058459384000e+00 1.6875270783619285e+01 0 0 0
555 2 3.8790459777913160e+00 3.9426948453199806e+00 1.6557617083729134e+01 0 0 0
556 1 5.9485522052149609e-01 3.0172534997084108e+00 1.3286255937854214e+01 0 0 0
557 2 1.3158130654182134e+00 2.6047217252726043e+00 1.2737609971508961e+01 0 0 0
558 2 3.2216135132516044e-01 2.3446844395054129e+00 1.3985948743271949e+01 0 0 0
559 1 -3.6988105648258256e+00 4.4810528731453116e+00 1.3024363953727942e+01 0 0 0
560 2 -2.9735312458085419e+00 4.7929337384308184e+00 1.2410461055135750e+01 0 0 0
561 2 -3.2248320952591794e+00 3.6834574765973982e+00 1.3496177292102946e+01 0 0 0
562 1 -1.1731212177296819e+00 4.1947629674822888e+00 1.5613559414230433e+01 0 0 0
563 2 -7.1565019569983690e-01 3.6177306368551374e+00 1.6331819916686463e+01 0 0 0
564 2 -2.0841953982993973e+00 4.4300550984198415e+00 1.5996468321570106e+01 0 0 0
565 1 5.3205621117726576e+00 7.2304923491797366e+00 1.1263203671819154e+01 0 0 0
566 2 4.7181743363291790e+00 7.6964726118963442e+00 1.0658946877889498e+01 0 0 0
249 2 1.0329493406715047e+00 9.5060739333879756e+00 1.8886596485258941e+01 0 0 0
568 1 -9.5921322648786234e-01 6.9808044113751135e+00 1.7720332856259084e+01 0 0 0
569 2 -1.2489988076747567e+00 6.4014811636592608e+00 1.8425230118908608e+01 0 0 0
570 2 -1.6748710034812930e-01 7.4033003287989372e+00 1.8085367765874039e+01 0 0 0
779 2 6.1729981207392175e+00 9.5247151548705418e+00 1.7942082809516663e+01 0 0 0
572 2 -5.6170675135425849e+00 1.5283517664478992e+00 1.8557572676056715e+01 0 0 0
79 1 3.5959912530830085e-01 1.4572005839657478e+00 1.9323367271065948e+01 0 0 0
751 1 3.9524851440739690e+00 8.9460442386714281e+00 9.8961610307170353e+00 0 0 0
576 2 4.8124817625447935e-01 1.1976465211793719e+00 1.0467551676650091e+01 0 0 0
577 1 1.9790365395414806e+00 4.8651986736617712e+00 1.4427280860436827e+01 0 0 0
578 2 1.4981795539300737e+00 4.0732069363830146e+00 1.4078212168866687e+01 0 0 0
579 2 2.8632931809908868e+00 4.5368735062451258e+00 1.4645305529734319e+01 0 0 0
580 1 -2.6884488407358011e+00 2.4220344517308772e+00 1.4398225041300941e+01 0 0 0
581 2 -2.5512045391864193e+00 1.9045763594653484e+00 1.3544343540879643e+01 0 0 0
582 2 -1.8516385011065228e+00 2.9237921088922021e+00 1.4622490148188142e+01 0 0 0
827 2 1.0706072183983068e+01 7.6185727767759550e+00 1.1287515734096205e+01 0 0 0
571 1 -5.4299116127780227e+00 7.1700545724016795e-01 1.8042126393902500e+01 0 0 0
589 1 1.2368686475357698e+01 8.9726001678387146e-01 1.4582260728269635e+01 0 0 0
163 1 9.5338878917045236e+00 1.2602677743985198e+00 1.9279005128610521e+01 0 0 -1
591 2 1.2634126323669371e+01 1.6816810847791788e+00 1.5161613398729454e+01 0 0 0
592 1 9.6441506701047253e+00 8.9969272259527666e-01 1.4706806160797026e+01 0 0 0
273 2 4.5246133635990438e+00 1.0021691150532675e+01 1.9295676446571576e+01 0 0 0
594 2 9.5777043418360357e+00 1.5820662982592792e+00 1.4005857884256207e+01 0 0 0
595 1 5.0973160627560530e+00 6.6046823467541422e+00 1.4822108845204285e+01 0 0 0
596 2 5.1706705284897101e+00 6.2314997857862879e+00 1.5703027785096449e+01 0 0 0
597 2 4.6542983413487056e+00 5.9131919931894457e+00 1.4305484090959544e+01 0 0 0
598 1 7.9612343207676712e+00 6.2822914303997592e+00 1.4522392562267365e+01 0 0 0
599 2 7.0176495771984087e+00 6.5460862243775155e+00 1.4623186128551676e+01 0 0 0
600 2 7.9324132243910022e+00 5.8317281376070174e+00 1.3620068769920953e+01 0 0 0
833 2 6.7336157676031805e+00 9.2578569461664255e+00 1.3597748294564163e+01 0 0 0
603 2 1.0622356042773561e+01 4.9249891930088445e+00 1.7947770638834413e+01 0 0 0
188 2 -5.5912789865762633e+00 9.3082579373886087e+00 1.9017409014528930e+01 0 0 0
605 2 1.1588116495042197e+01 5.1406434666239669e+00 1.0487199625704637e+01 0 0 0
795 2 1.2131692449083774e+01 9.2137769918574151e+00 1.3007967811647475e+01 0 0 0
602 2 9.6780558715998737e+00 4.4264093966690652e+00 1.9068199974890483e+01 0 0 -1
191 2 5.7890347923337604e-01 9.5692865613389060e+00 1.0181628596221048e+01 0 0 0
609 2 6.8709138979372852e+00 1.8421183185594716e+00 1.0890665315931292e+01 0 0 0