LAMMPS data file via write_data, version 15 Apr 2020, timestep = 3995000

6144 atoms
2 atom types

-2.0026715090088096e+00 6.1970960643258380e+01 xlo xhi
0.0000000000000000e+00 2.8094543965020765e+01 ylo yhi
0.0000000000000000e+00 2.7153261280632439e+01 zlo zhi
1.0170230023519920e+01 1.0195656207763527e+01 7.1225470656411751e+00 xy xz yz

Masses

1 16
2 2

Atoms # atomic

4409 2 1.5422353760102784e+01 1.8798599081683662e+01 7.1427350937744132e+00 1 0 0
2264 2 1.3932899375752161e+01 2.4734829287401070e+01 6.5611606302931316e+00 0 0 0
84 2 1.4807815841705189e+01 1.6915919386264733e+01 2.2356503396669712e+01 0 0 -1
353 2 1.7905322575144059e+01 8.8596953114468704e+00 2.3529774073689172e+01 0 1 -1
2429 2 1.4336213980609958e+01 6.6738778740792277e+00 1.2611274791867888e+01 0 0 0
827 2 4.4570582290258827e+00 1.1632751272463265e+01 2.7404028590138568e-01 0 1 0
2311 1 1.9071641641346869e+01 3.1156543940150751e+01 1.5103726363805624e+01 0 1 -1
2682 2 1.8594137173459071e+01 1.9470617838133951e+01 1.1602127992845345e+01 0 0 0
4430 2 2.4892716598136666e+01 1.7009241531841095e+01 2.4125004809784286e+01 1 0 -1
2517 2 1.0593640216431545e+01 2.6423067560981526e+01 6.5222546065092379e-01 0 0 0
78 2 7.6848834527597418e+00 1.1532544991072074e+01 2.9311364249226561e+00 0 -1 0
2355 2 1.5382677565418565e+01 2.6817119847908973e+01 1.2893451097555548e+01 0 0 -1
51 2 2.0650360084251567e+01 6.5339456401558316e+00 1.7435235606386311e+01 0 0 -1
229 1 1.7019239924903200e+01 1.9672306870254353e+01 8.0139602476428422e+00 0 0 -1
489 2 2.1551128965396051e+00 3.7743472783374039e+00 2.5442694481463204e+00 0 1 0
420 2 2.4211768543526428e+00 2.9109327314896078e+00 8.8744932897801565e+00 0 1 -1
1763 2 2.0599944158353406e+01 1.0171661712456448e+01 1.4702955249847927e+01 0 0 0
2476 1 1.5376493200764969e+01 2.2266093744845815e+01 7.5158950732104195e+00 0 -1 1
2391 2 8.1406613451131022e+00 1.9642813729737258e+00 5.6553057564397129e+00 0 1 0
1609 1 1.9630157074274091e+01 2.8487338357551067e+01 2.5594004591510490e+01 0 -1 -1
1979 2 1.3552433074996244e+01 2.6325977636822071e+01 3.5267421033437341e+00 0 -1 1
2603 2 2.4200987073401201e+01 2.8497418003289059e+01 2.0679131806110336e+00 0 0 1
1852 1 1.0902616100093608e+01 1.4427582094923679e+01 1.2019770172372857e+01 0 0 0
76 1 6.7039638215855053e+00 1.1378422048438896e+01 3.0045400438653114e+00 0 -1 0
606 2 7.4643099251445904e+00 7.6054598833511848e+00 4.6451773818469588e+00 0 0 1
532 1 1.0133700469999120e+01 1.0250311340513189e+01 5.1852074521828664e+00 0 0 0
517 1 2.3729425127598812e+01 1.9825590175410738e+01 2.4781704294009565e+01 0 0 -1
152 2 5.1446301531753438e+00 1.1868406549931015e+01 5.9288162599490732e+00 0 1 -1
1550 2 1.7909487456364666e+01 2.7502856183833238e+01 1.2186831712793820e+01 0 -1 0
1732 1 1.6587760898950698e+01 1.0503902208733379e+01 1.7538558093438819e+01 0 1 0
2448 2 2.2298006637248310e+01 2.6578220734482045e+01 1.7215798015755723e+01 0 0 -1
1565 2 1.5213423521665547e+01 3.1232136018438410e+01 1.3895541753204057e+01 0 -1 0
1694 2 2.3287784365644537e+01 2.4284469503934794e+01 2.4077797561408055e+01 0 0 -1
1549 1 1.7914327725095031e+01 2.8393359524450872e+01 1.2621081291577669e+01 0 -1 0
777 2 2.7470127358809155e+01 2.7742470582962554e+01 2.2351867853241547e+01 0 0 -1
5993 2 7.5843129247940144e+00 2.1488232069301556e+01 1.8566184087993174e+00 1 0 1
5990 2 9.4455022944801286e+00 1.7300795929948926e+01 1.3494324082385040e+01 1 0 0
2905 1 2.4037453331610212e+01 2.2533336794823775e+01 2.1545329002573645e+01 0 0 0
887 2 1.0557350352777215e+01 1.5340573122760103e+01 7.2379597394590833e+00 0 0 -1
2569 1 1.0441625546752782e+01 1.3585471727965151e+01 4.3376118310820138e+00 0 1 0
2313 2 1.9326637393155007e+01 3.1818597712040624e+01 1.5767314681671579e+01 0 1 -1
1891 1 1.0645663463265826e+01 3.4241973404593180e+00 1.0027896199333822e+01 0 0 0
5245 1 1.7290425189238071e+01 2.9786049843991471e+01 8.9639125972698803e+00 1 -1 0
21 2 9.7779444114242473e+00 2.0726138618349459e+01 1.9399418615355579e+00 0 0 -1
2598 2 3.4979974849087148e+00 2.9928591239058893e+00 4.5455306388178780e+00 0 0 0
810 2 1.4217628212702429e+01 1.0366330760470071e+01 2.7107645658707490e+01 0 0 -1
289 1 2.1258542469214067e+01 2.9056759388052399e+01 1.9882429594166023e+01 0 -1 -1
239 2 1.5705535646638339e+01 2.7557503418641204e+01 1.7500042685886797e+01 0 0 0
947 2 7.2218428258724998e+00 3.2358776060702477e+00 1.2737008198796531e+00 0 0 1
478 1 1.7435597377282757e+01 1.9772581066025161e+01 2.6631024482106042e+01 0 0 -1
1814 2 1.9234849458191992e+01 2.7417219752077717e+01 7.0096723002821042e+00 0 0 0
779 2 1.2927262078123833e+01 9.8009592052731165e+00 2.0469161463756596e+01 0 1 -1
1956 2 1.7624310836430304e+01 1.5343378180975343e+01 7.4083659156418316e+00 0 0 1
2490 2 5.0087907449915372e+00 1.3582723414334785e+01 1.2995838313292676e+00 0 1 1
5231 2 9.3218442067627727e-01 4.9377864699916723e+00 3.7725401719607219e+00 1 0 1
1977 2 1.7676226939372953e+01 2.1795813177905252e+01 4.6513140471317520e+00 0 0 0
5158 1 1.5841029985831252e+01 1.2652186166218371e+01 2.2169028697641338e+01 1 0 0
5251 1 1.4495959625343492e+01 1.4008414213406827e+01 2.3548521685197285e-01 1 0 0
299 2 1.4943566373727375e+01 2.9180361712161339e+01 1.0948190882883548e+01 0 0 0
6017 2 1.2902043810021826e+01 2.1818592094470553e+01 1.5865920020422335e+01 1 0 0
1474 1 2.1559564943224068e+01 2.6676471079252174e+01 2.6140575446673264e+01 0 0 -1
987 2 6.8514496019538349e+00 1.2690099813566665e+01 1.2817772546836901e+01 0 0 0
831 2 8.7177487607018023e+00 6.7648110112531974e+00 7.1671953152433101e+00 0 0 0
318 2 1.7277737006133162e+01 2.3186712491764087e+01 1.6807993488672409e+01 0 0 -1
1605 2 1.8140166319076243e+01 3.0765085119995938e+01 1.0694251940725298e+01 0 -1 1
1923 2 1.2284359918659497e+01 3.9389436470174832e+00 1.7962945128091321e+00 0 1 0
2143 1 2.0046274129787928e+01 1.6480722233057254e+01 2.5902767314704420e+01 0 0 -1
1556 2 7.7696922799207773e+00 1.3894917516610981e+01 1.5876807122822420e+01 0 0 0
1804 1 2.6334904108655795e+01 1.6313269424024124e+01 2.5600255474338212e+01 0 0 0
2610 2 2.6023661772027431e+00 8.2170234055996421e+00 4.9135390384228410e+00 0 0 1
5184 2 1.1420488575445578e+01 1.8116954306921862e+01 1.6433469483492878e+01 1 0 0
362 2 1.4804624992452059e+01 8.8770695406420401e+00 1.6101382284915083e+01 0 0 -1
3670 1 8.7526963041718773e+00 1.5387803529489871e+01 3.3271461673820681e+00 1 0 -1
975 2 2.2672835836120008e+01 1.6859937440758898e+01 2.3743752144496877e+01 0 1 -1
1052 2 1.3766335281726093e+01 2.0513749728065378e+01 2.0807945160666613e+01 0 1 -1
6043 1 1.2315215196836467e+01 2.3175852595257549e+01 1.8503572565290259e+01 1 0 0
72 2 3.0891234303927174e+01 3.3099855592559955e+01 2.0831037223499038e+01 0 -1 -1
5156 2 1.7287593232686941e+01 3.1580893610709349e+01 1.8280451577535167e+01 1 -1 0
412 1 2.0052848889836646e+01 1.5127088247172054e+01 1.8943890962144575e+01 0 0 0
507 2 1.2084480048328274e+01 6.8012092140936105e+00 1.5882026738191717e+01 0 0 -1
3672 2 8.2063655761804171e+00 1.5039174280074608e+01 4.0203310080195420e+00 1 0 -1
1105 1 2.0432767394766934e+01 1.3449937825362046e+01 2.2182832265943009e+01 0 0 -1
6016 1 1.2173118136386769e+01 2.1245221784847981e+01 1.5627814119952296e+01 1 0 0
1007 2 5.3477386652391443e+00 3.6105777272615303e+00 7.0291350474084409e+00 0 0 1
913 1 1.1890330371861847e+01 8.4050613792041915e+00 2.6908338261749527e+01 0 0 -2
2336 2 1.2239623792912855e+01 1.1642575917111330e+01 1.0724822586313010e+01 0 1 0
2438 2 1.6042213510690384e+01 1.1287770380221648e+01 1.8877305416551643e+01 0 1 -1
1802 2 3.7590801043350970e+00 6.3426205287758464e+00 4.9488278052391612e+00 0 -1 0
742 1 1.4751824457331278e+01 7.9061160362231915e+00 4.7287992174481523e+00 0 1 0
950 2 1.1642161328666045e+01 1.5192755704099469e+01 1.8620155555904002e+01 0 -1 0
900 2 1.6748970196866885e+01 4.3182399805482579e+00 1.2758154865012544e+01 0 1 0
2743 1 2.0924153829845409e+01 2.3509443730041035e+01 1.5500930285976604e+01 0 0 0
2576 2 1.2876616421814397e+01 5.0634394450398590e+00 6.7602542239800396e+00 0 1 0
290 2 2.0901873296380987e+01 2.9375499636781257e+01 1.8963415462394686e+01 0 -1 -1
1650 2 2.2076972225206838e+01 2.1327795742876766e+01 1.6566521883201805e+01 0 0 0
3031 1 1.3490952452656110e+01 1.1296065740935736e+01 1.2730576777898094e+01 0 1 0
1116 2 7.8898668649332571e+00 1.0023937862186752e+01 7.2594775845739079e+00 0 1 0
960 2 1.1577362590557192e+01 2.5217617264164780e+01 6.6166727615329357e+00 0 1 -1
5179 1 3.6472594977613033e+00 6.0554685769842012e+00 7.8926159139583163e+00 1 0 0
3526 1 9.6873585480945632e+00 9.9205799020142429e+00 2.5923513260498943e+01 1 0 0
1660 1 2.9584311632270673e+01 3.2399349709536118e+01 2.5800585643050017e+01 0 -2 0
360 2 1.4037891198472693e+01 2.8186219633811614e+01 1.6646661550894436e+01 0 0 0
1901 2 1.8770181133640271e+01 2.9782107593239079e+01 1.7900286145240276e+01 0 -1 1
2386 1 2.2754089299544813e+01 2.8651218445938383e+01 1.0695349925691954e+01 0 0 0
2936 2 1.7175994314524843e+01 1.6964868560374470e+01 1.7425545148575445e+01 0 1 0
137 2 1.9324919180372806e+01 1.1182955977150554e+01 1.8199994936565911e+01 0 -1 0
914 2 2.2671456699338446e+00 1.9669012379417945e+00 4.8232367841273743e-02 0 0 -1
1624 1 1.0179093035595132e+01 2.5017165781178779e+01 1.0598417052186566e+01 0 0 0
5831 2 1.5405447723707894e+01 2.7731994665270811e+01 1.9496644608833623e+01 1 0 0
2414 2 1.9793417683135633e+01 2.3699332124217364e+01 1.1142067798592466e+01 0 -1 1
126 2 7.3906567004319257e+00 2.5540341341423673e+01 3.2631317830068274e-01 0 -1 0
2556 2 1.5260861505438886e+01 2.6353314151852437e+01 2.2686835695815972e+01 0 0 -1
2626 1 7.0400018503679771e+00 8.2846989207247468e+00 1.8263895632631208e+01 0 0 0
881 2 1.6350435839832429e+01 2.1482303794777373e+01 1.0151841312422029e+01 0 0 0
37 1 1.3432072774782061e+01 2.3516190883605766e+01 2.0901994836142840e+01 0 0 0
1370 2 1.8076378132559032e+01 1.2430111977257036e+01 1.5215406968225011e+01 0 1 0
2065 1 1.6226276858507585e+01 2.0493443566098200e+01 1.6337304438655082e+01 0 0 0
1856 2 6.4778930968760555e+00 4.8704303098460624e+00 9.1005646617171188e+00 0 1 -1
1980 2 1.3277568328714830e+01 2.7876458286776977e+01 3.9330271241249717e+00 0 -1 1
5229 2 1.3597194445467963e+01 1.2333051835423699e+01 1.5447953400838731e+01 1 0 0
2623 1 1.5265288095796084e+01 2.8083487527808863e+01 1.7313072938325325e+00 0 -1 0
53 2 1.2271066781999082e+01 2.9326288121022683e+00 3.9514333676132876e+00 0 0 0
5944 1 1.0976970090484125e+01 7.8657823166259559e+00 5.3848308803053966e+00 1 0 1
5973 2 1.2627602985819200e+01 1.8874925805064017e+01 1.8703137124974119e+00 1 0 0
3647 2 9.8716626969874923e+00 7.7192497831495492e+00 2.1869168970548274e+00 1 0 0
5972 2 1.2539430750773157e+01 1.9235135260038561e+01 3.9244875413601543e-01 1 0 0
1040 2 5.5518606675765021e+00 1.6075106771416156e+01 2.4171706006309397e+00 0 1 0
291 2 2.1344020236859279e+01 2.9787205009729245e+01 2.0511789536121810e+01 0 -1 -1
1789 1 1.5270894957583543e+01 9.7281092595684822e+00 2.5730995926075828e+01 0 0 0
2244 2 1.1609584590796318e+01 1.7036797071511934e+01 2.5091210217226319e+01 0 0 0
2570 2 9.9237973706267066e+00 1.4275376343653754e+01 3.9160306781478531e+00 0 1 0
5948 2 2.6451499621659444e+01 2.5357182116082818e+01 1.9137112336460998e+01 1 0 0
1858 1 1.1117603354595158e+01 1.6953227626068454e+01 2.3150632800078675e+01 0 0 0
2410 1 1.3159611596117493e+01 2.2262874906933277e+01 1.6649136432291143e+00 0 0 1
1115 2 8.1431260371485976e+00 9.9681067172062523e+00 5.7236045149289243e+00 0 1 0
3473 2 2.3007262281949266e+01 3.5095623396023640e+01 2.6857992582131121e+01 1 -1 -1
2460 2 2.2559490321665113e+01 7.8573199402291163e+00 2.3138231513090318e+01 0 0 0
4432 1 1.3423490784847132e+01 2.4804679419577806e+01 1.4285326824145779e+01 1 0 0
1703 2 1.1957985025643815e+01 1.6691024757058326e+01 9.8310311591609043e+00 0 0 0
1113 2 7.4839253541283846e+00 1.0004195335678665e+01 1.4090676054013663e+01 0 0 0
349 1 1.5832748612728228e+01 2.8649614759643644e+01 5.3347171334387316e+00 0 -1 0
2353 1 1.5423206426436323e+01 2.6434196309202555e+01 1.3771386839376417e+01 0 0 -1
785 2 2.0023517143409137e+01 9.7440109277187510e+00 2.6814817426541396e+01 0 1 -1
796 1 1.7189614565217806e+01 2.6945519905909929e+01 2.6509585127618472e+01 0 0 -1
1976 2 1.6557934071658444e+01 2.2850854474477988e+01 4.6982220075965362e+00 0 0 0
1114 1 7.5115252846483287e+00 1.0209108395813725e+01 6.3946328933764267e+00 0 1 0
1273 1 1.1830754719122968e+01 1.5648129381169202e+01 6.9365699793522484e-01 0 0 0
788 2 1.2105417403083312e+01 8.7088097119468237e+00 2.3712921149797989e+01 0 1 -1
584 2 9.7593579667635737e+00 1.2380351342502406e+01 3.2860374734160129e+00 0 0 1
187 1 1.1959899355784247e+01 1.1215474788293282e+01 1.8178111865056138e+01 0 0 0
3027 2 1.2212704327461143e+01 2.3768353699526642e+01 8.4907608956962157e+00 0 1 0
479 2 1.7318722424376379e+01 1.8977952766322861e+01 2.7128744601615526e+01 0 0 -1
1030 1 1.1498659904381235e+01 2.3325061745677342e+01 4.4032671013223537e+00 0 -1 0
1031 2 1.2142672022931292e+01 2.2572381212701242e+01 4.2659140515020590e+00 0 -1 0
351 2 1.5945062387381228e+01 2.8161659251347650e+01 6.2022804192556107e+00 0 -1 0
1548 2 1.5089212541604130e+01 1.5328763605753746e+01 2.5091549464345057e+01 0 1 0
4433 2 1.2962993594837862e+01 2.5250977003311938e+01 1.5008604645953017e+01 1 0 0
6044 2 1.2817646533389784e+01 2.3244499436225844e+01 1.9313744461765239e+01 1 0 0
1749 2 1.7958334566779826e+01 1.5139386671367385e+01 2.3141168226426199e+01 0 0 0
177 2 1.8767277767035932e+01 2.1549766617496552e+01 1.7124406745748239e+01 0 0 -1
5180 2 3.2988773635235926e+00 6.4606851006060229e+00 7.0702449371960618e+00 1 0 0
1686 2 1.4174881712456425e+01 2.1307037313430197e+01 4.3155463726394911e+00 0 -1 1
11 2 6.5695127765579091e+00 1.5089230235659510e+01 9.0109762245002434e-01 0 0 0
1274 2 1.1316069834453820e+01 1.6381790373883444e+01 2.8943098599307410e-01 0 0 0
729 2 1.7390544522556841e+01 1.9976580825127989e+01 2.4894695185524746e+01 0 1 -1
144 2 2.6092633950387700e+01 2.9186192956256512e+01 2.0510439303343976e+01 0 0 -1
292 1 2.0698765205395947e+01 1.3940300949294217e+01 7.0128795286909673e+00 0 0 0
1604 2 1.8337297954600867e+01 2.9873352712596791e+01 1.1857604458632158e+01 0 -1 1
822 2 1.4250501149379101e+01 2.6721937096447030e+00 7.7057868746096396e+00 0 1 -1
2561 2 2.0395393678157472e+01 1.5675609002466061e+01 9.4911478469216455e+00 0 0 1
1212 2 1.6151151124330166e+01 1.0247745167814141e+01 1.3117190744076137e+01 0 1 0
386 2 1.3701197163219227e+01 1.4554228596006066e+01 1.3893906974324031e+01 0 -1 -1
1897 1 1.6998264225674760e+01 1.9066765771201940e+01 2.0363012572321395e+01 0 0 0
5830 1 1.4719734547894003e+01 2.7398077638902080e+01 2.0109681668363663e+01 1 0 0
108 2 8.3615462785437611e+00 2.4170124730727064e+01 5.4127233508539021e+00 0 0 0
308 2 7.4172519220462405e+00 1.4771760292616058e+01 1.1424619155113179e+01 0 1 0
309 2 8.1571643485627163e+00 1.6173395236537488e+01 1.0917645583003107e+01 0 1 0
2098 1 1.1448563588111098e+01 9.0759289109624923e+00 9.0005399908238388e+00 0 0 0
3474 2 2.4068315823830229e+01 3.4313651507775518e+01 2.5881243430185368e+01 1 -1 -1
2596 1 3.6922797565560295e+00 3.1042821488089087e+00 3.6481517499627270e+00 0 0 0
709 1 2.1856890050268799e+01 9.3265150595560513e+00 1.8669069823206133e+01 0 0 -1
1097 2 1.1738149486963330e+01 6.5480539032332574e+00 1.2184822883842841e+01 0 0 0
1186 1 1.0453527611075483e+01 1.1962266888517208e+01 1.4195928212529353e+01 0 1 -1
2977 1 2.1897835569188672e+01 2.6608568674404129e+01 1.2805454873073355e-01 0 0 0
18 2 2.6319677920017373e+01 2.4638532483896494e+01 1.6246669253451397e+01 0 -1 0
4434 2 1.2716159822321616e+01 2.4821299955788177e+01 1.3632440361443033e+01 1 0 0
2477 2 1.5224823146469070e+01 2.3113173431723673e+01 7.0312391497731968e+00 0 -1 1
100 1 5.0830855202048264e+00 9.2872524672789361e+00 4.9844753638461796e+00 0 0 0
1202 2 2.3230641044311611e+01 1.9177119526711110e+01 1.0666863088371258e+01 0 0 0
355 1 1.4116570989854605e+01 1.3546020503314780e+01 1.8520553135098702e+01 0 0 -1
4 1 1.0822339440561837e+01 1.5009516056316553e+01 1.5669964698958346e+01 0 -2 0
1144 1 2.5002095488791998e+01 2.2131724991752478e+01 1.8363293547077724e+01 0 0 1
270 2 3.0162409180287309e+01 2.9963504470811209e+01 2.0929470196866323e+01 0 -2 -1
5015 2 1.5523190933305916e+01 2.0850662610005816e+01 1.8070981486921522e+01 1 0 0
1647 2 1.7106461278329366e+01 3.1047110750019229e+01 1.5329787928089171e+01 0 0 0
3639 2 1.3805390496856790e+01 1.8486051256629032e+01 1.9302145828639027e+01 1 0 -1
511 1 2.3396087485792322e+01 1.1068702745547711e+01 2.2636263183674249e+01 0 0 -1
2715 2 1.4995831317876608e+01 1.3822135049793305e+01 1.0309873557479229e+01 0 0 1
1250 2 1.7231096709386069e+01 1.8470885341653599e+01 4.8798410037563444e+00 0 0 0
1085 2 2.2081195628590574e+01 2.6648220262953576e+01 5.4314180473320945e+00 0 -1 0
1797 2 2.4537762144984590e+01 2.6046822311963073e+01 6.3775391271643631e+00 0 0 0
2240 2 2.3316689763505696e+01 2.5719839379956472e+01 1.3409075130862643e+01 0 0 0
1557 2 9.0712721121339221e+00 1.4417659876568049e+01 1.5259552699396908e+01 0 0 0
1820 2 1.7286901058338895e+01 1.3975471385877736e+01 1.7322631490568234e+01 0 1 -1
588 2 2.1499186711262901e+01 3.2855745574432198e+01 1.9600439445204032e+01 0 0 -1
1603 1 1.8656264295790159e+01 3.0705478241824551e+01 1.1562425396087658e+01 0 -1 1
1743 2 1.5253129989953095e+01 2.3717086223931187e+01 2.5298942710231064e+01 0 0 0
462 2 2.1740301995594869e+01 1.6651201932955296e+01 1.1088605733951264e+01 0 0 0
2454 2 7.9881784597414285e+00 4.9930067601481332e+00 2.4315896065131870e+00 0 0 1
2551 1 1.3386125600356662e+01 1.1309979250701492e+01 7.8037963835058637e+00 0 0 0
5181 2 4.2036251415276631e+00 6.6969441398473482e+00 8.3854319059365334e+00 1 0 0
984 2 2.3246243281579172e+01 2.5764341650832680e+01 2.1173539998458551e+01 0 0 -1
2333 2 6.7049891114640765e+00 1.0501248952696059e+01 1.6736986588624121e+00 0 1 1
1646 2 1.6049248679068491e+01 3.1734790189615239e+01 1.6270602405604965e+01 0 0 0
1704 2 1.1965689116761759e+01 1.7789984184683330e+01 1.0930006107369879e+01 0 0 0
2237 2 1.8800557362667675e+01 1.6505830423538281e+01 2.4729979220648900e+01 0 -1 1
2416 1 1.5484783625158606e+01 1.5095441450147852e+01 1.3709591455198593e+01 0 0 0
2367 2 1.3015974860422865e+01 1.2852688817900004e+01 2.2503369568488587e+01 0 1 -1
6021 2 1.5024694726336225e+01 1.4061965075050177e+01 1.5462108076198101e+01 1 0 0
227 2 1.7886743523326952e+01 1.9137547574963353e+01 1.4688855334067443e+00 0 0 0
437 2 1.4554506714375844e+01 2.9673888469874690e+01 6.0312932611544401e+00 0 -2 0
1552 1 8.0174197716260487e+00 5.1075650685888423e+00 1.2991899342670447e+01 0 0 1
83 2 1.4026743208950091e+01 1.5749589878820444e+01 2.1724574770564448e+01 0 0 -1
2389 1 8.3872466719057144e+00 2.5158940722206582e+00 6.4425140468498023e+00 0 1 0
782 2 8.8513508343090521e+00 1.4984823541840969e+01 1.1563834522799935e-01 0 1 0
2261 2 1.8127602716167306e+01 2.1052986313820472e+01 7.8612203604269864e+00 0 -1 2
1570 1 1.2329202307253237e+01 1.8108595634753787e+01 1.2491281496971297e+01 0 -1 2
2611 1 4.6486894266858840e+00 9.8861225810846864e+00 7.6384677561539958e+00 0 1 1
2538 2 1.5981533960198817e+01 1.9489227740778023e+01 1.1114129014020820e+01 0 1 1
1927 1 1.6077216498790776e+01 2.2123009911849245e+01 2.2341651202563629e+01 0 0 0
251 2 1.2528688048209592e+01 9.9415621689687512e+00 1.4203508221617342e+01 0 0 0
354 2 1.7288810139331570e+01 7.8246585608862258e+00 2.4537811945786014e+01 0 1 -1
1916 2 2.1026847013034338e+01 3.0497906156830307e+01 1.4953423627834434e+01 0 0 0
2661 2 1.7548665066141645e+01 1.3034263911190058e+01 2.5948469916965720e+01 0 1 -1
609 2 2.4893376655911059e+01 1.3124190836936732e+01 2.6219411439540369e+01 0 0 -1
245 2 1.7109526772584861e+01 1.4953335465996300e+01 1.4920805552399740e+01 0 0 0
828 2 1.4567166839914591e+01 1.9067496013738971e+01 2.5951112010942264e+01 0 1 -1
6019 1 1.4990929904281995e+01 1.3165907835009232e+01 1.5829683740097749e+01 1 0 0
2436 2 1.1350976031059240e+01 7.5314022592995045e+00 2.0703900366341028e+01 0 1 0
2500 1 1.8710167797558729e+01 1.3249664140729568e+01 1.0925517315386944e+01 0 0 1
2379 2 1.3983442789165142e+01 2.3545416563781394e+01 1.5272308504588484e+01 0 0 0
2602 1 1.3731238693263364e+01 1.3182477824953485e+00 2.2589065489636613e+00 0 1 1
374 2 2.3350028339547972e+01 2.8193855206790161e+01 2.1755672469558395e+01 0 0 -1
1915 1 2.1720452429614994e+01 3.0216059034226767e+01 1.4294423293113715e+01 0 0 0
195 2 1.7883090476751370e+01 2.4052572391591386e+01 1.4254588304158169e+01 0 -1 -1
942 2 1.3495248049899566e+01 1.3279335173507164e+01 3.9799794894616691e+00 0 0 0
1769 2 1.4257259201763905e+01 8.8215414820377429e+00 2.4481802160727920e+01 0 0 -1
531 2 1.2240868065388437e+01 2.8470235916403951e+01 1.3173222373606540e+01 0 -1 0
1794 2 1.3802511391137555e+01 2.1631126781057169e+01 7.5035398276461365e+00 0 -1 1
4483 1 9.9480945066304951e+00 2.3269378337438280e+01 3.4499098772455911e-01 1 0 0
793 1 1.8507855432734111e+01 2.2295519072615416e+01 1.3454261967453339e+01 0 0 -1
2485 1 1.5727801307047020e+01 2.7830679644299245e+01 7.8468367167781796e+00 0 0 0
238 1 1.6426655497687570e+01 2.7716707927642467e+01 1.8114727361053600e+01 0 0 0
2641 1 1.3680267891300186e+01 1.4506876400000831e+01 2.4979992344883602e+01 0 0 0
1632 2 1.6210078986103014e+01 1.6848151576513377e+01 8.6583551886226058e+00 0 0 1
298 1 1.4991627725426486e+01 3.0150904275021070e+01 1.0861618811211947e+01 0 0 0
5227 1 1.2838810222471462e+01 1.1669090496125802e+01 1.5546255578850268e+01 1 0 0
52 1 1.1771678135895106e+01 3.7069560810649724e+00 3.5599708058074087e+00 0 0 0
5279 2 1.3664350288203902e+01 1.0659005278483315e+01 6.1003560998716102e+00 1 0 1
789 2 1.0766000168379897e+01 7.8700095337923726e+00 2.3476620010460518e+01 0 1 -1
2413 1 2.0051033391645124e+01 2.4625566782440202e+01 1.1356129833560397e+01 0 -1 1
328 1 2.0738972299235570e+01 1.9363017824033300e+01 2.5960491184904644e+01 0 0 -1
1657 1 2.2659020661728071e+01 2.3554956268955454e+01 1.1111370563448514e+01 0 -1 0
6040 1 9.9001058703923874e+00 1.7498116086568736e+01 4.1995974805642131e+00 1 0 0
3648 2 1.0372397027745462e+01 7.3396479916503621e+00 3.5878522978444733e+00 1 0 0
464 2 1.5851831495966152e+01 2.8716036047044495e+00 6.3770027864181529e+00 0 1 -1
5253 2 2.4182548891900769e+01 2.0651792914558094e+01 2.6749334427665236e+01 1 0 -1
443 2 2.1694898216784395e+01 1.9473839910743003e+01 1.5318825258895426e+01 0 0 -1
129 2 2.0369741375940755e+01 2.7311400320856166e+01 2.0192117942642813e+01 0 0 0
2881 1 1.9203405510477396e+01 2.1636173688752596e+01 3.7199792590252234e+00 0 0 1
2001 2 1.3532403899607289e+01 4.8793978236075519e+00 1.5350386516743646e+01 0 0 0
2572 1 1.2471281165902283e+01 1.4883927366228956e+01 2.2299600042489942e+01 0 0 0
1226 2 1.7529284029938129e+01 2.9982887067941490e+01 2.3666646696121990e+01 0 0 0
2260 1 1.8974409943467705e+01 2.1492765134413830e+01 7.9184633627376568e+00 0 -1 2
2463 2 8.8319034170443746e+00 2.4445312380170996e+01 3.2208913599307860e+00 0 1 0
1514 2 1.6181542119672148e+01 1.2519281537078520e+01 1.2196017210185042e+01 0 0 -1
1106 2 2.0756474521854596e+01 1.2689520803866628e+01 2.1706027266187380e+01 0 0 -1
3734 2 1.2500299288501834e+01 2.0990001011842871e+01 1.1232859034617444e+01 1 0 -1
156 2 2.2998550093107159e+01 2.5176169469700032e+01 1.9120506058993794e+01 0 -1 0
2268 2 1.5462838770585140e+01 1.6220616870765532e+01 2.8287538289831233e+00 0 0 1
2935 1 1.6217695622202950e+01 1.6789627791543911e+01 1.7378967914310710e+01 0 1 0
2437 1 1.5868740724154996e+01 1.1858297197491025e+01 1.9644814826404996e+01 0 1 -1
981 2 1.3518724134438662e+01 1.1033257283078076e+01 3.9402148255179292e+00 0 0 0
1851 2 2.3815500296981160e+01 2.7583879747183008e+01 1.4492041400459152e+01 0 -1 0
2418 2 1.5877324127793624e+01 1.4533973443408124e+01 1.3014527653571539e+01 0 0 0
4507 1 2.0057244472341356e+01 2.2893521257711939e+01 2.2502050179738340e+01 1 0 -1
6045 2 1.2907487694231733e+01 2.2688403922335187e+01 1.7959262790999446e+01 1 0 0
2550 2 8.9488462223507543e+00 1.8361093671038713e+01 1.1191253945375330e+01 0 1 0
259 1 1.3327977580016828e+01 2.3251182854340666e+01 2.3748736256065442e+01 0 1 -1
2384 2 2.0835096506405481e+01 2.8560948157608287e+01 1.7159881263663856e+01 0 0 -1
1954 1 1.7438123549434987e+01 1.6304914917269365e+01 7.5508734820714682e+00 0 0 1
2462 2 9.8950372677205767e+00 2.4173224904121383e+01 2.1001245671008242e+00 0 1 0
153 2 6.6429187418008837e+00 1.1463706400929279e+01 5.9344808951908208e+00 0 1 -1
5151 2 2.3934491342932002e+01 1.3856149886226525e+01 1.9459918319809393e+01 1 -1 0
214 1 7.6798099468782830e+00 1.8821860783060938e+01 8.1600771897827400e+00 0 0 1
442 1 2.1195882629185714e+01 1.9920547676962762e+01 1.6026149391043532e+01 0 0 -1
257 2 1.5241084833584424e+01 2.1841750014407587e+01 1.4327125312146039e+01 0 -1 1
330 2 2.0932169423808226e+01 1.9698983087998812e+01 2.6855866569257881e+01 0 0 -1
1611 2 1.9749016823329772e+01 2.8919995239602809e+01 2.4686746483977792e+01 0 -1 -1
1569 2 8.9291248561880767e+00 1.2345171080521313e+01 1.8709430161982475e+01 0 1 0
774 2 1.6621355935500940e+01 2.6460608845930622e+01 8.0976256887234666e+00 0 0 0
1019 2 2.4727594378254540e+01 2.0767000379898661e+01 1.9431476704878243e+01 0 0 -1
2637 2 7.5817376889697208e+00 1.7303786390929812e+01 2.1169357819149357e+00 0 0 1
1885 1 9.8475811102508395e+00 4.8388581291220305e+00 1.6827938583541862e+01 0 1 -1
1733 2 1.5691524005128581e+01 1.0210369824952791e+01 1.7152198756829975e+01 0 1 0
2409 2 1.8415442855194680e+01 2.5343356907979661e+01 2.4248175532376067e+01 0 0 0
2262 2 1.9625626538142495e+01 2.0801999895478318e+01 7.6518122626467671e+00 0 -1 2
1692 2 1.0171564579203896e+01 1.1494423893289060e+01 2.1889765685362857e+01 0 0 0
23 2 2.1898355126169292e+01 2.3713393413667994e+01 1.3166271710299704e+00 0 0 0
317 2 1.6711659998654078e+01 2.4320316141848977e+01 1.6095956941612023e+01 0 0 -1
1375 1 2.0903263019178329e+01 2.1367707797704167e+01 1.9473853193401947e+01 0 1 0
2621 2 1.8535040778346602e+01 1.6666216283204463e+01 1.4462740987014712e+01 0 0 0
376 1 4.8771960139558290e+00 5.7858768694107514e+00 1.1552626695244024e+01 0 0 0
2235 2 1.8814992978232141e+01 1.7149061764655926e+01 8.7582170189319317e+00 0 0 0
2307 2 2.2623629213878370e+01 1.0564898981728327e+01 1.7668979068659763e+01 0 0 -1
180 2 1.8882464750362782e+01 2.5766901167224972e+01 1.5576374067115388e+01 0 -1 0
1251 2 1.8346120974981190e+01 1.7366184775145790e+01 4.6013018668749099e+00 0 0 0
2510 2 1.1833901594666704e+01 7.7262420677185712e+00 1.7933237646902441e+01 0 1 -1
1740 2 1.9439178584069456e+01 2.4496877968189580e+01 2.5956115958740174e+01 0 0 0
867 2 1.9854626320652514e+01 9.0459674524458435e+00 2.4918904642704110e+01 0 0 -1
5160 2 1.6130392512643052e+01 1.2269420290589117e+01 2.1341752954973071e+01 1 0 0
2762 2 1.6176754273549207e+01 1.3700179760292697e+01 5.0872111320832591e-01 0 0 0
1446 2 1.4479487886949169e+01 1.6676605129624374e+01 6.2396255120270432e+00 0 0 1
2393 2 2.7446484409169678e+01 3.2667507071794688e+01 2.3802211476720593e+01 0 0 0
300 2 1.5733734395712386e+01 3.0361631330976692e+01 1.0259474110678223e+01 0 0 0
226 1 1.8631189669698156e+01 1.9734435508370602e+01 1.7493669200996635e+00 0 0 0
2638 1 2.0320402057108311e+01 2.9953591031470491e+01 2.3317965713091116e+01 0 1 -1
1371 2 1.7305759928490556e+01 1.1455506143863717e+01 1.6256405007760506e+01 0 1 0
1690 1 9.3643066278314677e+00 1.1988785937904437e+01 2.1686629981812082e+01 0 0 0
1346 2 2.3431419831388663e+01 1.4618334570296044e+01 2.5525454317693526e+01 0 1 -2
2100 2 1.1952532504297679e+01 8.2624319465180900e+00 8.8691886159485733e+00 0 0 0
25 1 1.4837164175372070e+01 2.7565667829350097e+01 1.1296400427180069e+01 0 -1 -1
1592 2 4.1346971991494410e+00 8.8826265063259182e+00 2.4782624520793912e+00 0 0 0
1792 1 1.3049657537159217e+01 2.1060445426731039e+01 7.2270018378598353e+00 0 -1 1
1741 1 1.6134094903366108e+01 2.3408183788509948e+01 2.4905780365891523e+01 0 0 0
1745 2 1.0586648291106609e+01 1.7518991230727092e+01 1.8929869604987051e+01 0 0 0
457 1 1.7661832724612243e+01 5.8411430352465725e+00 1.0414431881379507e+01 0 1 -1
109 1 1.8866822727437295e+01 1.0040405903400593e+01 1.1790373258778965e+01 0 0 -1
1099 1 1.5117122469262082e+01 3.1417609621077553e+01 2.0126392338482901e+01 0 -1 -1
416 2 1.2181316474754922e+01 1.0883833163183084e+01 2.2221084587534460e+01 0 1 -1
2347 1 2.8901751650195568e+01 2.3023677598408760e+01 2.6982647270071340e+01 0 -1 0
81 2 1.6361251146003992e+00 1.3698328396295207e+00 4.5350160773553538e+00 0 0 0
1917 2 2.1819023851855157e+01 3.0935324478638883e+01 1.3673150615957800e+01 0 0 0
2979 2 3.2202824047415987e+01 3.3654219966546904e+01 2.6296252167601306e+01 0 0 -1
476 2 2.2145722158639131e+01 1.6544226086487519e+01 1.6620001177182200e+01 0 0 -1
5252 2 1.4414355910031826e+01 1.4983495445055176e+01 1.6953104057776378e-01 1 0 0
1162 1 1.5722831737980403e+01 3.2087863529360034e+00 3.1954468436015535e+00 0 1 0
2565 2 1.4654970175952133e+01 1.4503242908238720e+01 6.8099827780211415e+00 0 1 0
980 2 1.4043214090753274e+01 1.1466652837878375e+01 2.5183810158199318e+00 0 0 0
687 2 2.8159162127304651e+01 3.0310608478376537e+01 1.9552255545234946e+01 0 0 -1
830 2 9.7604578597249088e+00 6.4162483653174407e+00 8.1898100351800700e+00 0 0 0
1298 2 2.0955937162596243e+01 2.1664815430464451e+01 9.2695098571973951e+00 0 0 -1
486 2 2.0576632956476995e+01 6.5746944459258554e+00 2.3773487440834252e+01 0 1 -1
4509 2 2.0472854486448053e+01 2.3765921753477045e+01 2.2714979699543726e+01 1 0 -1
772 1 1.6954535100767835e+01 2.5699353037345695e+01 8.6281952894853653e+00 0 0 0
2882 2 1.9216674767290677e+01 2.2389345147416854e+01 3.0939113089695183e+00 0 0 1
86 2 7.7305614410850332e+00 1.0846657894872614e+01 1.9878814706352053e+01 0 1 -2
186 2 1.7389020949123189e+01 1.1167538179915040e+01 4.0562754471396456e+00 0 1 0
972 2 1.5097785255655253e+01 2.4977205984111688e+01 8.8625794152897459e+00 0 0 -1
915 2 9.1102153915778050e-01 1.2885222273228092e+00 3.5252334883638864e-01 0 0 -1