LAMMPS data file via write_data, version 15 Apr 2020, timestep = 0

6144 atoms
2 atom types

-1.5465420887214627e+00 6.1514831219903101e+01 xlo xhi
0.0000000000000000e+00 2.8094543965020765e+01 ylo yhi
0.0000000000000000e+00 2.7153261280632439e+01 zlo zhi
1.0170230023519920e+01 1.0195656207763527e+01 7.1225470656411751e+00 xy xz yz

Masses

1 16
2 2

Atoms # atomic

1595 2 1.9596707490417806e+01 2.2107565017233295e+01 1.9124565062558929e+01 0 0 0
1604 2 1.8898286643143496e+01 1.9484351982667693e+01 2.3815509636918833e+01 0 0 0
1663 1 1.2632715357208962e+01 1.9628543196130884e+01 1.2206776599288084e+01 0 0 0
987 2 1.1982089044834831e+01 1.3972571447709029e+01 1.5162993024439068e+01 0 0 0
225 2 1.8956560272860621e+01 2.7691804864501769e+01 1.0332433213344531e+01 0 -1 0
52 1 1.7204613197527493e+01 2.6327132502687732e+01 5.4283250670481911e+00 0 -1 0
25 1 9.7029484157264996e+00 1.1813945204229967e+01 1.3156342860128007e+01 0 0 -1
1625 2 1.8440616342815769e+01 1.4304366679101193e+01 1.5116696992408356e+01 0 0 0
2464 1 1.3121155372106347e+01 1.6932454042176516e+01 1.2371533290844194e+01 0 1 0
886 1 1.7679790503583042e+01 1.5218229143107104e+01 1.3785010354418075e+01 0 1 -1
1633 1 2.1998203593401087e+01 1.4156705798466636e+01 2.4057652538049950e+01 0 0 0
849 2 1.4354372642102543e+01 1.9783848893117497e+01 9.8526483196879155e+00 0 0 -1
2443 1 9.8805987998148836e+00 1.8076258387792560e+01 4.3754186855800539e+00 0 1 0
204 2 5.7292904431896918e+00 6.1494293404894798e+00 1.6028821917527406e+01 0 1 0
2466 2 1.2954508317200062e+01 1.7822953136293883e+01 1.2088715030969222e+01 0 1 0
1895 2 5.7269937272572777e+00 1.0720860252437852e+01 6.1811598453197130e+00 0 0 1
1670 2 4.2583809447743821e+00 4.8819009343822621e+00 1.6224767010312602e+00 0 0 0
1634 2 2.1620847884071271e+01 1.3323461302750630e+01 2.4346562623765049e+01 0 0 0
1064 2 2.4060119731309676e+01 2.9543891112353549e+01 2.0656679162853976e+01 0 0 -1
1894 1 6.6889775674410643e+00 1.0569107046755239e+01 5.8765335720148997e+00 0 0 1
1740 2 1.7264917257136997e+01 2.3264993598793911e+01 2.3902164175257926e+01 0 0 0
1916 2 1.8725071301029576e+01 2.5565365139527707e+01 1.5850735604870524e+01 0 0 0
611 2 7.0774099405147197e+00 4.2362355302259278e+00 1.3583091580869292e+01 0 1 0
1709 2 1.0463775925157744e+01 1.0443934227664620e+01 1.3549147536930244e+01 0 0 0
487 1 2.3271393766042845e+01 2.6548316040983906e+01 2.3762437196376236e+01 0 0 -1
53 2 1.7281944345811961e+01 2.7191856831238063e+01 5.8413195539228786e+00 0 -1 0
1587 2 1.4900085191437530e+01 1.4736590295087128e+01 1.3528711780293378e+01 0 0 0
1586 2 1.4748818429762608e+01 1.5416545589289601e+01 1.5004756641542235e+01 0 0 0
2346 2 1.6025992990555032e+01 2.2265745541807160e+01 4.1517089792354417e-01 0 0 1
2564 2 1.8220584679795177e+01 1.7773372769963593e+01 2.5082770399437749e+01 0 1 -1
1112 2 1.1732917997025922e+01 2.4033829784090340e+01 1.4185718093792532e+01 0 0 0
1871 2 1.6495605425683635e+01 2.4103303004154665e+01 1.7789488905236265e+01 0 0 0
610 1 6.8893597664117152e+00 4.6089094552850005e+00 1.4486585727833800e+01 0 1 0
1275 2 5.1670754467441089e+00 7.3424560393572058e+00 9.2776063004394571e-01 0 0 0
899 2 1.3987306441182991e+01 2.4773680435853841e+01 1.7507540447254581e+01 0 0 0
633 2 9.0551100012690497e+00 1.2096151807768019e+01 1.6516462685301743e+01 0 0 0
1708 1 1.0721090575102213e+01 9.5083553072171725e+00 1.3810977432513502e+01 0 0 0
27 2 1.0170094186791374e+01 1.2638934219884412e+01 1.2854745466237461e+01 0 0 -1
907 1 1.5708945833123270e+01 2.6331080928132792e+01 2.0870768294758307e+01 0 0 -1
99 2 8.7075715628486066e+00 5.1030932925054824e+00 1.0727402588970341e+01 0 0 0
1561 1 1.0908511443249498e+01 1.4408103560415112e+01 1.2728181789880296e+01 0 0 0
1901 2 2.1688208378174796e+00 1.2404776737420640e+00 5.9166399575524398e-01 0 0 1
174 2 2.0054157713031824e+01 9.6729882190471415e+00 1.6048953527651612e+01 0 0 -1
1538 2 1.0207587729292513e+01 1.4371655803279911e+01 1.9676160972088887e+01 0 0 0
924 2 2.1388602116701747e+01 2.0132530113551248e+01 1.4576481145471270e+01 0 0 0
149 2 1.1737208981251179e+01 7.6551472693472080e+00 2.3227389199900124e+01 0 0 -1
224 2 1.8189919740502813e+01 2.8533734934056348e+01 9.1845055892515415e+00 0 -1 0
1781 2 9.8659811782026097e+00 9.1210612653690895e+00 1.1325383980491072e+01 0 0 0
1710 2 1.1701209449385903e+01 9.5227124155019496e+00 1.3858361731713970e+01 0 0 0
954 2 1.3513466925478655e+01 5.9729825864452097e+00 6.1651570688656676e-01 0 1 0
1705 1 1.9402140868528043e+01 1.8647641002592323e+01 1.1914434273653058e+01 0 0 -1
1773 2 2.7448298635910927e+01 3.3120686182482011e+01 2.6199709015094605e+01 0 0 -1
101 2 6.5881964252242469e+00 1.3628518897166025e+01 4.9079048368970994e+00 0 0 0
1570 1 1.1811428982762564e+01 8.7498471178263273e+00 1.9332488070777433e+01 0 0 1
2314 1 1.4768113558716575e+01 2.2828728712207230e+01 8.3752875648692751e+00 0 0 1
1129 1 1.2598517372792221e+01 1.8993017911063927e+01 2.3187447530050459e+01 0 0 -1
2360 2 9.4180414969508952e+00 1.3836346658014667e+01 1.0254063567739712e+01 0 0 0
1635 2 2.2227816955793259e+01 1.4609803806469056e+01 2.4836655735327572e+01 0 0 0
1017 2 1.6403515718739488e+01 2.7005654113684841e+01 8.6216181613734353e+00 0 0 -1
1044 2 5.6567185386820675e+00 1.2928680128638879e+01 7.9123280814459864e+00 0 1 0
821 2 1.7496207206023602e+01 2.6146644330034832e+01 2.5969905575185859e+01 0 0 -1
1059 2 2.1186207659742781e+01 3.3466568953099021e+01 2.0666819470424354e+01 0 0 -1
896 2 2.4684511676986961e+01 3.2483477815936418e+01 2.3070305721014289e+01 0 0 -1
868 1 7.2264708786514618e+00 1.2295953946823749e+01 1.4220981913211033e+00 0 0 0
944 2 7.1000313152909484e+00 1.4472313469623723e+01 1.0151789637679693e+00 0 1 0
1571 2 1.2324316069722684e+01 9.5150024916325524e+00 1.9154568464420773e+01 0 0 1
1659 2 1.7938480129515533e+01 3.2182264026559999e+01 2.0691870012909892e+01 0 -1 0
894 2 1.5826040985417325e+01 2.3423393067073150e+01 1.1309382493932896e+01 0 0 0
1704 2 1.0117361108365643e+01 1.1719720577186429e+01 1.8851719130752620e+01 0 0 0
1274 2 5.6864349970251169e+00 6.5004882088757050e+00 2.0431752689437759e+00 0 0 0
1784 2 3.8391553362577744e+00 2.8405553880558103e+00 8.3173728237744822e+00 0 0 0
1669 1 4.2707663647520100e+00 3.9263021118428449e+00 1.5639495885517525e+00 0 0 0
1063 1 2.3657101949175789e+01 3.0197678028840510e+01 2.0051497397894401e+01 0 0 -1
1671 2 3.3497375557823670e+00 3.5898107208269034e+00 1.6023521612563532e+00 0 0 0
2381 2 1.0518777543053400e+01 2.0872736872479230e+01 1.5651894942097398e+01 0 0 0
147 2 1.4705187068776763e+01 3.0707558408550376e+01 1.6605578195668659e+01 0 -1 -1
824 2 8.4082413180693365e+00 7.3614395825931584e+00 1.8575584799346629e+01 0 1 -1
1785 2 5.1291788914138223e+00 3.7907588022240133e+00 8.4766674242786024e+00 0 0 0
1739 2 1.7174601884071276e+01 2.1759865843492182e+01 2.4012651161855786e+01 0 0 0
822 2 1.6862802123404503e+01 2.7269675126355779e+01 2.5028625075700965e+01 0 0 -1
2471 2 2.3027167317570122e+01 1.6856539424827961e+01 2.2112506812616164e+01 0 1 0
59 2 1.8114386923205085e+01 2.7940405171086748e+01 2.1262608441345883e+01 0 0 -1
887 2 1.6754089683998195e+01 1.5493703831700918e+01 1.3656089483112011e+01 0 1 -1
2465 2 1.3511830335910700e+01 1.6971439303716693e+01 1.3250975253472125e+01 0 1 0
54 2 1.7417993207194989e+01 2.5754025433085072e+01 6.1477420142483084e+00 0 -1 0
102 2 7.1756185779860679e+00 1.2187987379530014e+01 5.3589043425037577e+00 0 0 0
223 1 1.9032602994472658e+01 2.8368119117936402e+01 9.5967719613064553e+00 0 -1 0
1917 2 1.7390442747384984e+01 2.5619227643653140e+01 1.6795388596818764e+01 0 0 0
353 2 9.0025791619218793e+00 1.4257896623539487e+01 5.2717545072159737e+00 0 0 0
2407 1 9.7284249376747169e+00 1.6460864314902061e+01 1.3924021324845715e+01 0 0 0
2144 2 2.0442213153529408e+01 1.7058064271465838e+01 1.5758272601368843e+01 0 0 0
986 2 1.2267902255857035e+01 1.3069364812044050e+01 1.6332866828608488e+01 0 0 0
1706 2 1.9554929783822775e+01 1.7992058091157418e+01 1.1241121836036136e+01 0 0 -1
1703 2 9.2841571651559462e+00 1.0435268504684299e+01 1.8538042825710733e+01 0 0 0
1374 2 2.7686488034608370e+01 2.6563033162151129e+01 2.4095429856667888e+01 0 0 -1
1675 1 1.2535585679456386e+01 1.9057241654668754e+01 1.7002486577810448e+01 0 0 0
1046 2 2.7925554969846409e+01 2.8515723250248776e+01 1.7876069986846154e+01 0 0 0
1610 2 8.7809031512384443e+00 1.6183731813460945e+01 2.1820467129870269e+00 0 -1 0
922 1 2.1088336054418299e+01 2.0432015965200549e+01 1.5439699356538668e+01 0 0 0
1540 1 2.1748761991594648e+01 1.5537028758489209e+01 1.2424708570239734e+01 0 0 0
845 2 1.5229893768182958e+01 2.1243107027385644e+01 2.3827257362130517e+01 0 0 -1
1563 2 1.1093257102666023e+01 1.5356731837013889e+01 1.2748026036030589e+01 0 0 0
908 2 1.6295568581665588e+01 2.6933010895555615e+01 2.0406180057733312e+01 0 0 -1
893 2 1.4572031073064668e+01 2.2442466051786351e+01 1.1203951780997592e+01 0 0 0
28 1 2.1984993511431124e+01 2.3687544051423679e+01 1.7112579439151460e+01 0 0 0
2616 2 2.8542438829674929e+01 2.3376838213925311e+01 2.1164548085316834e+01 0 0 0
2529 2 1.7484998453002408e+01 3.2697513145456576e+01 2.3462986288988532e+01 0 0 -1
300 2 1.1528230221478942e+01 1.8984496465610007e+01 9.8122575617093712e+00 0 0 0
1585 1 1.4842695510134213e+01 1.5621166629344851e+01 1.4074728938981155e+01 0 0 0
2414 2 1.6433601035408824e+01 1.8643439555764520e+01 9.3381579409926019e+00 0 0 1
945 2 6.0600206931458844e+00 1.5600572339228625e+01 1.0276255640727241e+00 0 1 0
2441 2 1.6795865672445139e+01 2.2133127817898071e+01 1.4161876322453526e+01 0 0 1
847 1 1.3710191725972303e+01 2.0506903667305515e+01 9.8126255765869992e+00 0 0 -1
1562 2 1.1774340768620528e+01 1.4083643594899165e+01 1.2433304843898965e+01 0 0 0
1015 1 1.6534542399699447e+01 2.7981463427290944e+01 8.5872966910257027e+00 0 0 -1
1738 1 1.7108691876122311e+01 2.2553935690027217e+01 2.4545517473819306e+01 0 0 0
949 1 2.1541269762750353e+01 2.4111915094801912e+01 2.0896193595455269e+01 0 -1 0
30 2 2.2849251705571902e+01 2.3459362770989920e+01 1.6538481323888085e+01 0 0 0
2397 2 1.3580671302195960e+01 3.0331899100532709e+01 1.2409011836806199e+01 0 0 0
2796 2 1.1189129183878645e+01 4.7963534831373361e-01 6.6862089395771998e-02 0 1 1
150 2 1.1334070064425486e+01 6.2134121525132144e+00 2.2650000092908478e+01 0 0 -1
2440 1 1.6231938210640873e+01 2.1609326961693160e+01 1.3650242501722552e+01 0 0 1
98 2 8.1956643547861248e+00 4.2966352928115263e+00 9.3579937679878196e+00 0 0 0
2408 2 9.1948553858785722e+00 1.5746478884067368e+01 1.4104168763822040e+01 0 0 0
369 2 2.0047060097976260e+01 1.2178278493319402e+01 1.2959104429355977e+01 0 0 -1
1065 2 2.3230675150488821e+01 2.9585566674886742e+01 1.9393177518750317e+01 0 0 -1
1130 2 1.2758700574653901e+01 1.9138108734920323e+01 2.2214668038638187e+01 0 0 -1
2355 2 2.4366418623777051e+01 3.1608614661627584e+01 1.9821689773346744e+01 0 0 0
962 2 1.4458694496387270e+01 9.2973316124619370e+00 2.0567127144915521e+01 0 1 -1
888 2 1.8219727078578888e+01 1.6019115483579739e+01 1.3978081668109986e+01 0 1 -1
1135 1 1.5742556742991962e+01 1.2579147027304177e+01 2.4671229782303911e+01 0 1 -1
299 2 1.0585521270461349e+01 1.7863776504551936e+01 1.0356327947717247e+01 0 0 0
626 2 2.1854787587988394e+01 1.1293095942439948e+01 2.4631594200343027e+01 0 0 -1
873 2 1.0034185080956064e+01 9.7489407491471809e+00 1.6779751959301809e+01 0 0 0
105 2 9.7976243590958667e+00 1.5658727027365059e+01 8.6689306504798367e+00 0 0 0
2311 1 7.5394809008751480e+00 1.0319342963680608e+01 3.2278069300440544e+00 0 1 0
1515 2 1.2474758790797495e+01 1.8974041535216330e+01 6.3040361947453700e+00 0 0 0
1896 2 7.0280820976530478e+00 9.8559153639817954e+00 6.3737441487645548e+00 0 0 1
1546 1 1.4469067140391456e+01 1.6610198694938244e+01 2.4531837452158715e+01 0 1 0
984 2 1.7627891511095715e+01 8.0521924275269097e+00 1.3423218876811251e+01 0 1 -1
588 2 5.8140621171546876e+00 1.4417017976482079e+01 2.8514932944756985e+00 0 0 0
909 2 1.4766894434382316e+01 2.6506748144907906e+01 2.0864859909351296e+01 0 0 -1
2668 1 2.2420350087318464e+01 2.8189811617246541e+01 1.4272045989497432e+01 0 0 0
2354 2 2.5452952494189834e+01 3.2766221107456587e+01 1.9513779847854487e+01 0 0 0
1068 2 2.1747538708517123e+01 3.0399013240524770e+01 2.3296636770667007e+01 0 1 -1
234 2 1.1939370127964064e+01 1.6734691616728607e+01 2.0495286525294421e+01 0 -1 0
1273 1 4.8302318121110552e+00 6.8724033806564426e+00 1.7468363920058765e+00 0 0 0
1132 1 8.4816884126519447e+00 7.6170909344215127e+00 8.9341614269303893e+00 0 1 0
1780 1 8.9028233317380021e+00 9.2466244329365814e+00 1.1485129569140517e+01 0 0 0
898 1 1.3667593899819725e+01 2.4967932495870421e+01 1.8431105570189661e+01 0 0 0
1514 2 1.1297377525558389e+01 1.8320269170415791e+01 5.2452135312229773e+00 0 0 0
1686 2 1.5271391901142461e+01 2.3414211968100965e+01 2.5558894515070357e+01 0 -1 0
352 1 9.6757336117110775e+00 1.4856450904050062e+01 5.7077954358191043e+00 0 0 0
961 1 1.4159002152640600e+01 1.0048008319200385e+01 2.1124226776573689e+01 0 1 -1
885 2 1.3558712372061787e+01 1.2700070612138619e+01 1.3093152006866735e+01 0 1 -1
489 2 2.2852373457331311e+01 2.6669454726247697e+01 2.2883582612087856e+01 0 0 -1
2316 2 1.4865004101282370e+01 2.2041712808532957e+01 7.8144529888835921e+00 0 0 1
975 2 1.3408418194601778e+01 2.6297713810023460e+01 7.9188784572402113e+00 0 0 0
818 2 2.1285887254078208e+01 3.2446648488046073e+01 1.8196562425531290e+01 0 0 -1
775 1 1.1573517020350328e+01 2.1052772821444908e+01 1.2588711286852943e+00 0 0 0
1603 1 1.8456815431241708e+01 2.0174829344245158e+01 2.3289293903421612e+01 0 0 0
344 2 2.6625053074632996e+00 1.0303725867149522e+01 1.3612842850368520e-01 0 0 0
1605 2 1.8585412934486651e+01 2.0017258693489012e+01 2.2335503610227143e+01 0 0 0
2532 2 1.4854934373019070e+01 2.4437827376665084e+01 1.5342382576450278e+01 0 0 0
77 2 1.1819327539362003e+01 2.4115824753126279e+01 6.0724213264599163e+00 0 -1 0
100 1 7.2331383784468279e+00 1.3136893744540437e+01 5.4368505196333308e+00 0 0 0
1877 2 1.2529682369593591e+01 9.5257436913404803e+00 2.4457616617836820e+01 0 0 0
2669 2 2.2155853449029323e+01 2.8769166532193562e+01 1.3491511967611656e+01 0 0 0
2427 2 9.1066234824485406e+00 1.2166756629028821e+01 2.2031742300220809e+01 0 0 0
2568 2 2.8965262834295626e+01 3.3557020232902488e+01 2.2187163602673429e+01 0 0 0
1016 2 1.6291455783609749e+01 2.8235182115460994e+01 7.7104465994321831e+00 0 0 -1
2283 2 1.3398754414657290e+01 2.5419287687852357e+01 5.5990391499826133e+00 0 -1 0
995 2 4.8993902853741762e+00 8.5753302490973837e+00 2.8085930739226028e+00 0 1 0
97 1 8.5001557232536484e+00 5.1754654686659327e+00 9.7747497224437083e+00 0 0 0
2361 2 9.7891736092673192e+00 1.2344291135800393e+01 1.0371839814702673e+01 0 0 0
788 2 2.4902535235928251e+01 2.1919068709644666e+01 1.2852645187639933e+01 0 0 0
1513 1 1.2262625900507466e+01 1.8497058596907962e+01 5.4454758450492307e+00 0 0 0
1078 1 1.6307771319919038e+01 2.9022615064686679e+01 1.3001172387836217e+01 0 0 0
963 2 1.4762107590455717e+01 1.0076709764528992e+01 2.1925869202835763e+01 0 1 -1
1547 2 1.4469509783582097e+01 1.7224968252235271e+01 2.3757540741616705e+01 0 1 0
2353 1 2.4637250926916717e+01 3.2575046642197378e+01 1.9964153732402622e+01 0 0 0
917 2 1.3673022561328917e+01 1.4215494237546604e+01 2.2798530306864933e+01 0 1 -1
2451 2 1.6756916204148244e+01 2.5431213694254055e+01 2.3651684913155783e+01 0 0 0
985 1 1.1757764525815874e+01 1.3886047173834932e+01 1.6052164923833530e+01 0 0 0
2068 1 2.3272448444603025e+01 2.7553562120394705e+01 2.1388113336655583e+00 0 -1 1
76 1 1.1962907387895463e+01 2.4672100948086733e+01 5.2544845649516878e+00 0 -1 0
298 1 1.1193114672112850e+01 1.8079853765104701e+01 9.6167797777740081e+00 0 0 0
1707 2 1.8447431489778179e+01 1.8802890514857218e+01 1.2080012518706734e+01 0 0 -1
1028 2 1.1440511551660327e+01 7.2533035736736178e+00 3.1247374375399302e+00 0 1 0
612 2 6.0968870672575708e+00 5.1696491730251859e+00 1.4339994609143080e+01 0 1 0
1914 2 1.9030868790626091e+01 3.1697783296835102e+01 2.4667554086002450e+01 0 0 0
1079 2 1.5780465381296583e+01 2.8740984397171328e+01 1.2159434023146334e+01 0 0 0
883 1 1.2784966133035859e+01 1.2178039928005720e+01 1.2948682657936260e+01 0 1 -1
2442 2 1.6046584178229093e+01 2.2069443128763510e+01 1.2803356948263403e+01 0 0 1
1915 1 1.7692065516357772e+01 2.5688573416810478e+01 1.5866509999343126e+01 0 0 0
3504 2 8.3683688509533134e+00 1.4052763054925510e+01 1.5084373148473905e+01 1 0 0
2315 2 1.4797369071769936e+01 2.2422795730171011e+01 9.2264367024487921e+00 0 0 1
2409 2 9.5605946978639906e+00 1.7145063356517639e+01 1.4603651419769413e+01 0 0 0
983 2 1.6384310623497594e+01 8.5023003063409917e+00 1.4196138469911185e+01 0 1 -1
923 2 2.0191150790052777e+01 2.0131866955040529e+01 1.5510598359075251e+01 0 0 0
946 1 8.0722176348937449e+00 8.4258027731501084e+00 2.2076498392265894e+01 0 0 0
354 2 1.0114530033517623e+01 1.5233814193798484e+01 4.9560932982081676e+00 0 0 0
15 2 1.7919759876344710e+00 5.8090427358827377e+00 2.8952642035911977e+00 0 0 0
1589 2 1.0365807306643767e+01 2.3731672636505266e+01 2.8672975893019834e+00 0 -1 1
1616 2 1.7225259925619181e+01 2.4795664529394962e+01 8.9245976590401277e+00 0 -1 0
1050 2 8.8226896143651015e+00 1.9442859235211809e+01 9.7241061338192825e-01 0 0 0
1081 1 1.9151808139775969e+01 1.2132078994706568e+01 2.2538780028281398e+01 0 0 -1
1594 1 1.9141181696814446e+01 2.2684207351821804e+01 1.8483240691904161e+01 0 0 0
2445 2 9.7746408755781573e+00 1.7219274784084917e+01 3.7992444908369363e+00 0 1 0
1588 1 1.1327397785175709e+01 2.3563322324189976e+01 2.9094983340742044e+00 0 -1 1
1150 1 2.1646445360136823e+01 2.1666251428916038e+01 2.0023287385467793e+01 0 0 0
81 2 2.0717056215614587e+01 3.2698180291293930e+01 2.6832836887694807e+01 0 -1 -1
313 1 2.1375760719124671e+01 1.4091833382591368e+01 1.7196390166470692e+01 0 0 -1
1118 2 4.7601862809858977e+00 2.7021919510867898e+00 2.7429739180951201e-01 0 1 0
1872 2 1.5964574501606695e+01 2.5268960497931456e+01 1.8641472329883246e+01 0 0 0
2613 2 2.0626661802458212e+01 3.0660322006456951e+01 1.1402101671494338e+01 0 0 1
1133 2 8.5579865435994318e+00 8.2500366614984717e+00 9.6530280111820925e+00 0 1 0
1762 1 1.5410363786553713e+01 1.3054605465783141e+01 9.8675501257314338e+00 0 0 0
2556 2 1.8215716598109939e+01 2.0985008323698931e+01 2.0317071169006539e+01 0 0 0
2548 1 2.3558447406760923e+01 1.1298228309323679e+01 2.4678794158611208e+01 0 1 0
1870 1 1.6717870109360998e+01 2.4992090741602130e+01 1.8188911410628258e+01 0 0 0
1662 2 5.8532905412900513e+00 1.2585399408075705e+01 6.4718019625656420e-01 0 -1 1
1136 2 1.5710730890619974e+01 1.1643558495216404e+01 2.4402940398392836e+01 0 1 -1
1736 2 1.5153270364832235e+01 1.1177166374143539e+01 6.2937578285507980e+00 0 0 0
376 1 1.5500875747636858e+01 5.8907815980696974e+00 1.2667840187012231e+01 0 0 0
1109 2 1.2102652621901756e+01 1.2660031788916818e+01 1.8568182106662402e+01 0 0 0
372 2 1.1332991095631348e+01 9.9626359045828057e+00 2.2862651515993619e+01 0 0 0
333 2 1.7275010809302717e+01 3.1340666303386051e+01 1.8179243229914466e+01 0 0 0
2555 2 1.8883262083612077e+01 1.9631413434339674e+01 1.9838635099729135e+01 0 0 0
374 2 7.5308883537491464e+00 6.6681061416403331e+00 6.0263322689270042e+00 0 0 0
1801 1 1.6786885681558307e+01 1.9120159236795445e+01 1.2339977710973914e+01 0 -1 0
442 1 4.6751241744309571e+00 7.3965374009663245e+00 4.9857157604948901e+00 0 0 0
2601 2 1.7139956347856657e+01 2.2893492519153362e+01 5.5892344102355400e+00 0 0 0
2600 2 1.5809553936881663e+01 2.3402536759290857e+01 4.8645707104512317e+00 0 0 0
188 2 1.8250551779165530e+01 2.1193687978102425e+01 9.1577619050901564e+00 0 0 0
2444 2 9.0978993335654277e+00 1.8050816288473495e+01 4.9282781002684573e+00 0 1 0
1637 2 1.0809172656211020e+01 1.2297580458553760e+01 2.3088222454194394e+01 0 0 0
2642 2 5.0645375088665023e+00 7.1074066786154884e+00 1.1209821615828602e+01 0 0 1
2307 2 2.3937734732987494e+01 2.8794051800738664e+01 3.2799280554108012e+00 0 -1 0
1119 2 1.5687524129277396e+01 8.7916025448824158e+00 2.6449817490889057e+01 0 1 -1
1088 2 2.4676005081949274e+01 2.9213962259201924e+01 2.4248295316298673e+01 0 0 -1
707 2 2.0992474998755540e+01 7.5782042702650072e+00 1.7829939819442874e+01 0 0 0
269 2 1.4071190812339591e+01 1.9992917261927552e+01 1.7838259035121304e+01 0 -1 -1
2306 2 1.3162493926198884e+01 1.7115568795480609e+00 4.2765609332281391e+00 0 0 0
198 2 1.2604110657495504e+01 4.7841752920270588e+00 9.2840764508482430e+00 0 0 0
1089 2 2.3844431700649942e+01 2.7910703861936362e+01 2.4707343944939208e+01 0 0 -1
2468 2 1.9700745810705698e+01 1.8703992261565240e+01 2.6207885538343902e+01 0 0 0
2570 2 2.0474194245775145e+01 2.6903701188001062e+01 7.4022901072759053e+00 0 0 0
776 2 1.1619167558503690e+01 2.1862243261200810e+01 1.7813838035842580e+00 0 0 0
851 2 6.4843246383370285e+00 1.2663142635564350e+01 1.1907044066102944e+01 0 1 0
1658 2 1.8584155466016949e+01 3.0962289161064632e+01 1.9935485294322145e+01 0 -1 0
1255 1 2.8066538151674632e+01 2.7386012698303613e+01 1.4195174711002638e+01 0 0 0
2604 2 9.8766856850806928e+00 6.5520662055652927e+00 1.1782169475694020e+00 0 1 1
1716 2 1.0530619451599687e+01 7.2290075310495352e+00 2.4823551615042231e+01 0 0 0
1134 2 8.4293843425763040e+00 6.6347583364273515e+00 9.1928979207592061e+00 0 1 0
2644 1 1.4254427395748824e+01 9.7427786887663181e+00 1.6884574391429449e+01 0 0 0
3026 2 1.3178279063563680e+01 5.1980828504180838e+00 1.4609462055986537e+01 0 1 0
332 2 1.7018901004024602e+01 3.0149562727496491e+01 1.7115449138788829e+01 0 0 0
1735 1 1.5470726222051923e+01 1.2121478809184641e+01 6.3658067117193244e+00 0 0 0
2646 2 1.4224342281040588e+01 8.7842069000052678e+00 1.7041863693261035e+01 0 0 0
2413 1 1.5787839872758354e+01 1.8568062144243687e+01 1.0052502762577859e+01 0 0 1
895 1 2.5453527144024928e+01 3.2399180998628040e+01 2.2404159040390539e+01 0 0 -1
2603 2 1.9580081279380245e+01 1.3504051995942548e+01 2.6911232397405676e+01 0 1 0
2554 1 1.8593168479812917e+01 2.0137890261742083e+01 2.0581265670949819e+01 0 0 0
2629 1 1.0867384504059693e+01 6.5050490723597179e+00 8.4231518597821839e+00 0 0 0
2305 1 1.4010580097407844e+01 1.4530183560442789e+00 3.8134011236952325e+00 0 0 0
443 2 5.3609085669139089e+00 7.3672194057685285e+00 5.6389584388369061e+00 0 0 0
1577 2 2.1729373590959270e+01 2.5597392341954013e+01 3.7674831168304568e+00 0 -1 1
2375 2 2.1361772871068574e+00 1.5684414400236797e+00 4.8200853883725419e+00 0 1 1
994 1 4.8720919027936045e+00 9.5143196605021831e+00 2.5776268361515147e+00 0 1 0
167 2 2.6707518543364245e+01 2.6719793943189842e+01 2.6348872310208229e+01 0 0 -1
897 2 2.5118614640130755e+01 3.2499129860997435e+01 2.1452742324521868e+01 0 0 -1
318 2 2.0843660212227913e+01 3.0348067620449534e+01 2.1038385001973513e+01 0 -1 -1
725 2 4.3059656446699854e+00 4.5091378610381012e+00 6.1710417218030891e+00 0 0 1
2456 2 1.4078908019582208e+01 1.6523690672999958e+01 6.5021517902523742e+00 0 0 1
1672 1 1.2727603199571373e+01 2.9663771345345900e+01 8.6972996781518184e+00 0 -1 0
1617 2 1.5799939914544392e+01 2.4425406546125004e+01 8.5116412303656972e+00 0 -1 0
1117 1 1.4917462872450873e+01 8.9304139798134337e+00 2.7031373774230268e+01 0 1 -1
1737 2 1.6139095815813132e+01 1.2222031385080397e+01 7.0629314573732627e+00 0 0 0
1909 1 2.0995868879805183e+01 1.0947989026349969e+01 1.6762243722499278e+01 0 0 0
1682 2 8.3078426608893814e+00 3.1992610137608666e+00 1.1930608856033446e+01 0 0 0
1159 1 2.6745662645841133e+01 2.2175506463470409e+01 1.7984042499619221e+01 0 0 0
197 2 1.3271052392508672e+01 4.4066866355872447e+00 1.0737088971419238e+01 0 0 0
759 2 2.0024658945284184e+01 2.9154628721799167e+01 4.4454571650272756e+00 0 -1 0
2576 2 6.8599081729871969e+00 3.0200287035537023e+00 7.0345685834760721e+00 0 1 0
444 2 4.3745968760829959e+00 6.4635266673340510e+00 4.9431534460074786e+00 0 0 0
1370 2 1.0727917885561990e+01 3.9970342990576175e+00 2.7718661900268806e+00 0 1 0
2795 2 1.1638672549383685e+01 2.0200807723735528e+00 5.0418162093259689e-01 0 1 1
1681 1 7.3557973287786425e+00 3.2942643076787599e+00 1.2165827067188998e+01 0 0 0
2467 1 9.5936985547165943e+00 1.1775782349378531e+01 6.9570675033123211e-02 0 0 1
1596 2 1.8697921572310904e+01 2.2177258576690747e+01 1.7748070909828748e+01 0 0 0
1621 1 1.2108141557774239e+01 1.6460978273438187e+01 1.7438130160752397e+01 0 0 -1
1622 2 1.2221262126861914e+01 1.6413026785133013e+01 1.8456099433552534e+01 0 0 -1
1151 2 2.1094857499696676e+01 2.1138541390808040e+01 2.0633801134681512e+01 0 0 0
1691 2 2.4596842305632158e+01 2.5207434668619950e+01 2.3181507010579420e+01 0 -1 0
316 1 2.1582473960459875e+01 3.0416103366253569e+01 2.1739444243045632e+01 0 -1 -1
2612 2 1.9778997545759445e+01 2.9854342561207574e+01 1.0366092470585958e+01 0 0 1
2491 1 8.5196099608361120e+00 1.9786953351795223e+01 2.6485462961939903e+00 0 0 1
1774 1 2.4198009980660988e+01 2.0721269887270527e+01 2.1044567647123785e+01 0 0 0
1110 2 1.1896175554865918e+01 1.2848388172762569e+01 2.0137861362501400e+01 0 0 0
1876 1 1.2741963459442481e+01 9.5765478049162400e+00 2.5405373924553249e+01 0 0 0
2563 1 1.9100556814369394e+01 1.8121687401977162e+01 2.4901992636993736e+01 0 1 -1
2630 2 1.0023768550549896e+01 6.9640787239854571e+00 8.5485739038175996e+00 0 0 0
216 2 2.2148515776550056e+01 2.8485022141978195e+01 1.8055713697676929e+01 0 0 0
819 2 1.9968371357925246e+01 3.2383908340495822e+01 1.7281214097435072e+01 0 0 -1
373 1 7.8474538042132593e+00 5.8408975694969438e+00 5.6172743828851051e+00 0 0 0
1049 2 1.9314167889096044e+01 2.6908231983945154e+01 2.6667686935417517e+01 0 0 -1
2512 1 1.4956325713605647e+01 2.7471069107705262e+01 1.5562514815903459e+01 0 0 0
214 1 2.2260222473338448e+01 2.7941014598945976e+01 1.8820500584514001e+01 0 0 0
1900 1 2.0521526127744991e+00 2.8004133109154417e-01 3.2680365253737981e-01 0 0 1
375 2 7.4734023587795662e+00 5.8111465960603219e+00 4.7196159171820531e+00 0 0 0
1668 2 1.6169722154544946e+01 2.2232369237162001e+01 2.1618711120841841e+01 0 0 0
2439 2 1.1037650973255650e+01 9.8962721499353936e+00 2.0203620571952969e+00 0 1 0
189 2 1.7718932691471334e+01 2.1987330392308490e+01 1.0350567180128065e+01 0 0 0
844 1 1.4568270578082238e+01 2.0794975505464446e+01 2.4407994048231600e+01 0 0 -1
187 1 1.8460532023339226e+01 2.1519008445506266e+01 1.0080446271972344e+01 0 0 0
1611 2 7.8714097371400502e+00 1.6467192225179097e+01 3.3852406421052210e+00 0 -1 0
314 2 2.1815745014988678e+01 1.4336203318633222e+01 1.8039508736542675e+01 0 0 -1
2602 1 9.3659411149906191e+00 5.9420610324802343e+00 6.2738145802960466e-01 0 1 1
1548 2 1.3576398374657277e+01 1.6619271712801620e+01 2.4935635518504146e+01 0 1 0
1560 2 1.2586477132342488e+01 2.5543795541493921e+01 1.1467246699072557e+00 0 0 1
486 2 2.2191750368448279e+01 1.0330358050084111e+01 1.7952473975588145e+01 0 0 0
271 1 1.5347428081599265e+01 1.6690189371331236e+01 2.0245944563402240e+01 0 0 0
2469 2 1.0408517523099636e+01 1.2322341125009901e+01 2.5123870019349986e-01 0 0 1
1657 1 1.7764756706973234e+01 3.1440360379021012e+01 2.0134198777706629e+01 0 -1 0
385 1 1.9149870301093717e+01 1.4758016076390462e+01 2.5544115553527728e+01 0 0 -1
679 1 1.6209215987888758e+01 6.3554187030620186e+00 4.1800459893111457e+00 0 0 0
29 2 2.1569893644147623e+01 2.2803491191587575e+01 1.7175192233249675e+01 0 0 0
1152 2 2.1544639258754994e+01 2.2655565287101219e+01 2.0307625364377344e+01 0 0 0
625 1 2.0924471575087463e+01 1.1670296803403517e+01 2.4541052164718284e+01 0 0 -1
1878 2 1.3687092921004854e+01 9.5393676394449223e+00 2.5473987625799229e+01 0 0 0
2437 1 1.0969260149708566e+01 9.5047321848830695e+00 1.1629079804710525e+00 0 1 0
1615 1 1.6368319350195311e+01 2.5174649606443435e+01 8.7279617510249476e+00 0 -1 0
920 2 2.7223630583126724e+01 2.3193844454197308e+01 2.4782919337219688e+01 0 0 -1
284 2 1.4592867040668700e+01 6.6278475535696968e+00 1.7881714570630329e+01 0 1 -1
871 1 1.1018027203548428e+01 9.6798449031952742e+00 1.6742362334591284e+01 0 0 0
820 1 1.7167581259572401e+01 2.6362019917630487e+01 2.5064369382500843e+01 0 0 -1
2670 2 2.1793893917974767e+01 2.7419625931890550e+01 1.4259323137528568e+01 0 0 0
117 2 2.5072353227493956e+01 2.1010185545069330e+01 2.5789526955870475e+01 0 0 -1
1116 2 8.5005673625000675e+00 8.2567245305464230e+00 1.3229678780663784e+01 0 1 0
2492 2 9.1783805197097976e+00 1.9167841717220814e+01 3.0589009908065128e+00 0 0 1
1085 2 9.4810142665580539e+00 1.6552504605235832e+01 6.9152124224709821e+00 0 0 0
848 2 1.3054000663768807e+01 2.0204800320863527e+01 1.0489675146757868e+01 0 0 -1
273 2 1.5751486889133137e+01 1.6865642199448690e+01 1.9408528986671033e+01 0 0 0
1084 1 9.3181184287297718e+00 1.6916326990407683e+01 7.8371365980709600e+00 0 0 0
1910 2 2.1740984388599365e+01 1.1396122455520578e+01 1.6306438876262352e+01 0 0 0
1087 1 2.4152850984343385e+01 2.8845831859989268e+01 2.5000416133558414e+01 0 0 -1
292 1 7.4656211712202705e+00 1.3528373849325842e+01 7.8827615303756193e+00 0 0 0
196 1 1.3378896284025927e+01 4.9581853425459315e+00 9.9097368661287479e+00 0 0 0
777 2 1.2262438683076894e+01 2.0504943137593624e+01 1.6845449786308526e+00 0 0 0
308 2 1.7235367187200090e+01 2.3820001402176604e+01 3.0107436869447550e+00 0 0 0
309 2 1.8606808376659167e+01 2.4327677517947134e+01 2.4663415219941012e+00 0 0 0
3003 2 1.1985702758470225e+01 8.4383714016447335e+00 9.9447735785792872e+00 0 1 0
1809 2 2.1602148617881671e+01 2.4694787269371364e+01 1.2609175403734502e+01 0 0 0
880 1 1.4452135203004593e+01 1.9534408519957537e+01 2.1139511843550753e+01 0 0 0
315 2 2.2123766457722986e+01 1.3771930641793723e+01 1.6639832821638297e+01 0 0 -1
283 1 1.4214751276149187e+01 6.9495221026929368e+00 1.7038833089579054e+01 0 1 -1
386 2 1.8673114101218868e+01 1.4430114624014887e+01 2.4739115145693731e+01 0 0 -1
531 2 1.8717988347372550e+01 5.5143045219381142e+00 1.5441500255091013e+01 0 0 0
726 2 4.4460752530258976e+00 4.0409489671121879e+00 4.7223911286609788e+00 0 0 1
1545 2 1.0089657850865830e+01 8.7648894893666167e+00 1.9442104819566353e+01 0 0 0