LAMMPS data file via write_data, version 15 Apr 2020, timestep = 500000

3072 atoms
2 atom types

1.2079662158888382e-01 3.0019397378408115e+01 xlo xhi
1.4589296386825801e-01 2.8194573036128769e+01 ylo yhi
1.1672894414373935e-01 2.7294716055853080e+01 zlo zhi
1.0151488441227363e+01 1.0205178300704828e+01 7.1405454828774140e+00 xy xz yz

Masses

1 16
2 2

Atoms # atomic

1 1 7.3511205910188790e+00 5.3189143965095944e+00 4.0582755851038321e+00 0 0 0
2 2 6.5732327422779644e+00 4.7849804402013838e+00 3.8625295729243083e+00 0 0 0
3 2 7.0298209420464710e+00 6.0318565543287317e+00 4.6513091651838181e+00 0 0 0
4 1 1.0351209173960822e+01 6.9248500871611984e+00 1.0985591674110054e+01 0 0 0
5 2 1.0918074706055339e+01 6.5200726860423934e+00 1.1662484613406749e+01 0 0 0
6 2 9.9730841900750669e+00 7.7067995335357677e+00 1.1449870987632247e+01 0 0 0
7 1 1.0186105805788905e+01 1.2439407716254202e+01 4.0772147479607437e+00 0 0 0
8 2 1.0650859214889751e+01 1.2020337032658080e+01 4.8407036003181423e+00 0 0 0
9 2 9.7569847004314578e+00 1.3363857194744268e+01 4.4094487003786798e+00 0 0 0
10 1 1.2472137494861284e+01 1.3945977383676288e+01 1.0902989148866618e+01 0 0 0
11 2 1.3203535783682680e+01 1.4136599269732303e+01 1.0253237273881833e+01 0 0 0
12 2 1.1705921119631260e+01 1.3500075619962049e+01 1.0446192862945963e+01 0 0 0
13 1 1.4919227843202819e+01 5.3854586488881022e+00 4.1990541417664433e+00 0 0 0
14 2 1.5320888418216823e+01 4.8150154347801521e+00 4.8879701578111838e+00 0 0 0
15 2 1.4713516076408306e+01 6.2038379606731429e+00 4.7227770800278197e+00 0 0 0
16 1 1.7325494090473963e+01 7.1899381421980824e+00 1.0897976373051069e+01 0 0 0
17 2 1.7899487317310683e+01 6.9069417915350915e+00 1.1603462965834954e+01 0 0 0
18 2 1.8013930415009458e+01 7.4077799154803063e+00 1.0251130531735512e+01 0 0 0
19 1 1.7453409055050415e+01 1.2230718523316092e+01 4.0460436808933080e+00 0 0 0
20 2 1.8283190006678197e+01 1.2612477830431093e+01 3.6763349959517164e+00 0 0 0
21 2 1.7915951223547314e+01 1.1856650294113015e+01 4.8354050115294891e+00 0 0 0
22 1 2.0152826556969618e+01 1.3980056522476344e+01 1.0938535762753091e+01 0 0 0
23 2 2.0929823388876855e+01 1.4327798207739612e+01 1.0438490081496358e+01 0 0 0
24 2 1.9647569386732986e+01 1.4757231923609483e+01 1.1263968105558211e+01 0 0 0
25 1 1.1780877383287695e+01 8.0777090716807791e+00 6.1685027574721270e+00 0 0 0
26 2 1.1077534237513202e+01 8.7048285429181185e+00 5.8299859271268106e+00 0 0 0
27 2 1.1300338376577994e+01 7.3770297096651367e+00 6.7176746891473433e+00 0 0 0
28 1 1.4004157918898219e+01 1.0030109916839969e+01 1.3256742500752713e+01 0 0 0
29 2 1.4346226281523702e+01 9.5302141398871250e+00 1.2481067805910280e+01 0 0 0
30 2 1.3370254111980220e+01 1.0610559587323186e+01 1.2855212107092122e+01 0 0 0
31 1 1.3877764527747219e+01 1.5278846215554029e+01 6.2659281325251257e+00 0 0 0
32 2 1.4166650665288730e+01 1.4600481277774696e+01 5.5947773606434277e+00 0 0 0
33 2 1.3268498913518204e+01 1.5855253002267586e+01 5.8210700216914191e+00 0 0 0
34 1 1.6678030774870916e+01 1.7120567186361171e+01 1.3319998627883839e+01 0 0 0
35 2 1.5844543852699097e+01 1.7514131940601551e+01 1.3001684511406006e+01 0 0 0
809 2 2.6831178670483148e+01 2.3304096341423268e+01 1.2422163457962535e+01 0 0 0
37 1 1.9084506560584607e+01 7.8917375250136708e+00 6.3162408760949775e+00 0 0 0
38 2 1.8304948724996159e+01 8.4079547016333880e+00 5.9116481744540383e+00 0 0 0
39 2 1.8705848447617722e+01 7.2923432843205100e+00 6.9109366389655138e+00 0 0 0
976 1 2.3471313055932985e+01 1.8210781415049745e+01 9.5441097473053240e+00 0 0 0
1152 2 2.4486934123479237e+01 3.0976867535190102e+01 1.2653205440583134e+01 0 0 0
42 2 2.0777376170796867e+01 1.0525257036149906e+01 1.2689013085992164e+01 0 0 0
843 2 6.7924785896171720e+00 1.5648372947093092e+01 3.8191422130624569e-01 0 0 0
44 2 2.0820171566360141e+01 1.5739926884141765e+01 6.0136396168590815e+00 0 0 0
1151 2 2.4942495188829728e+01 3.0003149642517293e+01 1.3673195597809581e+01 0 0 0
46 1 2.3901168271770679e+01 1.6810896860042952e+01 1.2894783784527823e+01 0 0 0
47 2 2.3120476701783556e+01 1.7277527016469833e+01 1.2585725045649282e+01 0 0 0
215 2 2.1600111866999097e+01 1.1683900632169358e+01 9.7907463418629224e+00 0 0 0
49 1 5.4388823660559122e+00 3.7549544067833582e+00 2.9529897740591031e+00 0 0 0
50 2 5.7096539732394289e+00 2.9653485656919458e+00 2.4349799369688370e+00 0 0 0
51 2 4.6901653584808312e+00 3.4411630164995231e+00 3.5201682643368288e+00 0 0 0
52 1 8.2868869854330960e+00 5.5029767124174658e+00 9.7236685620242476e+00 0 0 0
53 2 7.7220797215789405e+00 5.9039257587971434e+00 8.9688482814343740e+00 0 0 0
54 2 8.9851315314450524e+00 6.1552381387152000e+00 9.8375091017792951e+00 0 0 0
55 1 7.8423021417388918e+00 1.0691145734106579e+01 2.9410992465348094e+00 0 0 0
56 2 8.1775604306668424e+00 9.8130041950052522e+00 2.5967721686604235e+00 0 0 0
57 2 8.6235148228398817e+00 1.1114799051829543e+01 3.3125501148610219e+00 0 0 0
58 1 1.0582780021199330e+01 1.2577984322483022e+01 9.7679981051204088e+00 0 0 0
59 2 1.0096190731866621e+01 1.2986378265659001e+01 9.0330530645801304e+00 0 0 0
60 2 1.0788006409328496e+01 1.1599223796207360e+01 9.3993749537974320e+00 0 0 0
61 1 1.2804696623472424e+01 3.7342520814759101e+00 2.7752925759221423e+00 0 0 0
62 2 1.3343562211493991e+01 4.4256923065543807e+00 3.2667303689028340e+00 0 0 0
63 2 1.2378061356385613e+01 4.2663737929262124e+00 2.0962354504740466e+00 0 0 0
64 1 1.5091228268238019e+01 5.4569029426180382e+00 9.7553309070012926e+00 0 0 0
65 2 1.5802629847693321e+01 6.0091853304074121e+00 1.0092663882131777e+01 0 0 0
66 2 1.5485939464154534e+01 4.5777184935936983e+00 9.5961427236182857e+00 0 0 0
67 1 1.5272692855478098e+01 1.0762981698276231e+01 2.9253351782306227e+00 0 0 0
68 2 1.5899684863047790e+01 1.1447215649934456e+01 3.1844299324262280e+00 0 0 0
69 2 1.5657150585651236e+01 1.0029105815886870e+01 2.3874320187006468e+00 0 0 0
70 1 1.7780422895332727e+01 1.2707989283602698e+01 9.7053894704163035e+00 0 0 0
71 2 1.7450952007561799e+01 1.2898984003539226e+01 8.7659864302196020e+00 0 0 0
72 2 1.8361674751559480e+01 1.3402487278849017e+01 1.0091338155548884e+01 0 0 0
73 1 8.8886018663271238e-01 1.0453348004423924e+00 6.0318780746132261e-01 0 0 0
1016 2 1.5545315653281442e+01 2.6177652613313548e+01 6.1088295266013981e-01 0 0 0
1150 1 2.5218569053438710e+01 3.0399781063647119e+01 1.2827559327136697e+01 0 0 0
76 1 3.7596206362133198e+00 2.6799770302257873e+00 7.4677164538918026e+00 0 0 0
77 2 4.4712006992911641e+00 2.2443718827439301e+00 8.0267084068646035e+00 0 0 0
285 2 2.0497787490810399e+01 1.3672110515329384e+01 3.1485368225043517e+00 0 0 0
79 1 4.1433014667428889e+00 8.0462666814851538e+00 9.4682776817580527e-01 0 0 0
282 2 2.0284779054936756e+01 8.0709949613050718e+00 1.0247844520832944e+01 0 0 0
81 2 4.8600495932497108e+00 7.3307115245961247e+00 1.0876543122492910e+00 0 0 0
82 1 6.2551945922051626e+00 9.5468610028439063e+00 7.5337324450988818e+00 0 0 0
1149 2 2.2552332303164089e+01 2.8028111008788528e+01 4.7085314078891889e+00 0 0 0
84 2 6.9202153719253667e+00 8.9551395382647971e+00 7.9698598873127651e+00 0 0 0
131 2 7.2475753786628445e+00 1.1478044718808023e+01 1.0541342258144955e+01 0 0 0
851 2 1.1604791409367422e+01 2.4454750428558192e+01 6.7409356929367705e+00 0 0 0
87 2 8.3079025132825226e+00 1.3341602515222704e+00 1.3328636636368805e+00 0 0 0
88 1 1.1383864032580222e+01 2.6838504375845096e+00 7.1741699505830328e+00 0 0 0
89 2 1.2038769276549893e+01 2.2003935745027650e+00 7.7549265580046232e+00 0 0 0
90 2 1.1785936728589354e+01 3.4572567749134770e+00 6.7198697265288301e+00 0 0 0
1101 2 1.9143134922555703e+01 2.6440933527826338e+01 2.9280942315089320e-01 0 0 0
953 2 2.3878475336941204e+01 2.1192397146747751e+01 1.3605094062313494e+01 0 0 0
93 2 1.1931558146924163e+01 7.1501244124736543e+00 1.1810654490772206e+00 0 0 0
94 1 1.3633697390074571e+01 9.7001690519175501e+00 7.4638160880734805e+00 0 0 0
95 2 1.4391180241470579e+01 9.1630296560037028e+00 7.8792006234490568e+00 0 0 0
96 2 1.3026212304604874e+01 9.0369707798667207e+00 7.1112128167458089e+00 0 0 0
97 1 5.1758373824684725e+00 4.6920014105512902e+00 5.9754033923467409e+00 0 0 0
98 2 5.6487124966101270e+00 5.1923656986705051e+00 6.7140396523564441e+00 0 0 0
99 2 4.6106505568889515e+00 4.0436286404474115e+00 6.4556448982817605e+00 0 0 0
100 1 8.1499049020362051e+00 6.1105126041891573e+00 1.2772578047163082e+01 0 0 0
101 2 8.0161530439397541e+00 6.5665098991282100e+00 1.1951821288423934e+01 0 0 0
102 2 8.7902726557970148e+00 5.3329728176769331e+00 1.2570101295965713e+01 0 0 0
103 1 8.0679674286953666e+00 1.1470120381095619e+01 6.4196345919230913e+00 0 0 0
104 2 7.5668111125657251e+00 1.1888194295259085e+01 5.6952748626311447e+00 0 0 0
105 2 7.5262122360269617e+00 1.0662624129235025e+01 6.7357822839788559e+00 0 0 0
106 1 1.0145152153524883e+01 1.2977472791138510e+01 1.2692608367913719e+01 0 0 0
85 1 8.4962975431717371e+00 7.7807041666121557e-01 6.1212748035403730e-01 0 0 0
108 2 1.0730352832411928e+01 1.2325845989178152e+01 1.2243911193189886e+01 0 0 0
109 1 1.2875859402967860e+01 4.5175466901096399e+00 6.0503801083485635e+00 0 0 0
110 2 1.3679714050165202e+01 4.1253194929443433e+00 5.6841820951404376e+00 0 0 0
111 2 1.2491130983360254e+01 4.9772662728573485e+00 5.2249149602712315e+00 0 0 0
112 1 1.5408076482196435e+01 6.1506011391146460e+00 1.2736142809917430e+01 0 0 0
212 2 1.8632460596550501e+01 9.0913987405450278e+00 2.0461056093676602e+00 0 0 0
1617 2 9.0916700783318269e+00 1.1808379794091241e+01 1.3477368257658551e+01 0 0 0
115 1 1.5456893209707999e+01 1.1397571181861334e+01 5.8579336625804297e+00 0 0 0
116 2 1.4642634477205824e+01 1.1159175706725101e+01 6.2518140558792652e+00 0 0 0
117 2 1.5784916395411187e+01 1.2051546392851595e+01 6.4840074991428454e+00 0 0 0
118 1 1.7499927322994271e+01 1.3173866190097060e+01 1.2830660843701157e+01 0 0 0
900 2 1.2909581211142365e+01 2.5654857670229418e+01 1.0640824460227433e+01 0 0 0
120 2 1.6944661851498989e+01 1.3820896946499074e+01 1.2426657475026058e+01 0 0 0
121 1 3.3142206356068757e+00 2.8129022306977074e+00 4.4283381794268273e+00 0 0 0
43 1 2.1566931235242329e+01 1.5226969792056465e+01 6.3508284231422518e+00 0 0 0
123 2 3.4857869494535070e+00 1.8960584595027814e+00 4.7502169238563141e+00 0 0 0
124 1 5.9388977515028110e+00 4.6381142376791376e+00 1.1224286373794161e+01 0 0 0
125 2 6.7459400189983665e+00 4.9708564722590456e+00 1.0790030173697609e+01 0 0 0
126 2 6.2166044254405541e+00 3.8365069284479603e+00 1.1669568233886341e+01 0 0 0
216 2 2.0856711707024591e+01 1.0632868272912082e+01 9.0103788354225589e+00 0 0 0
210 2 1.9055078973212101e+01 4.6740136385288729e+00 9.9652552803261152e+00 0 0 0
129 2 6.6801185610988165e+00 1.0402263666324913e+01 4.0286109974535771e+00 0 0 0
130 1 8.0724645351940509e+00 1.1577592076662471e+01 1.1120405332040550e+01 0 0 0
1099 1 1.8963145017043541e+01 2.5696085198685431e+01 8.5982619458648057e-01 0 0 0
132 2 8.7333901895027459e+00 1.1900315659691721e+01 1.0447369098805993e+01 0 0 0
133 1 1.0873148247933148e+01 3.0755189487077095e+00 4.3982084264914230e+00 0 0 0
134 2 1.0973972544684401e+01 2.1655075263403409e+00 4.7179658216393241e+00 0 0 0
135 2 1.1654720258028577e+01 3.3334085515294092e+00 3.9273303098610493e+00 0 0 0
136 1 1.3186123865994679e+01 4.4017829025044097e+00 1.1578642390547712e+01 0 0 0
137 2 1.4009056784966074e+01 4.8499604761014021e+00 1.1291181568180473e+01 0 0 0
138 2 1.2936565901220181e+01 4.8352133755191451e+00 1.2392753131341680e+01 0 0 0
139 1 1.3050464046520288e+01 9.8152184971102994e+00 4.2652805086677601e+00 0 0 0
140 2 1.3867204568864659e+01 1.0111715585105614e+01 3.8496501446861409e+00 0 0 0
141 2 1.3312708813477464e+01 8.9323376713684031e+00 4.5908008746135689e+00 0 0 0
142 1 1.5525384057222970e+01 1.1612076646053012e+01 1.1261477599239136e+01 0 0 0
143 2 1.6158965918786389e+01 1.2325205871108571e+01 1.0972601374005579e+01 0 0 0
144 2 1.6179277703963795e+01 1.0924408695161214e+01 1.1581182833779993e+01 0 0 0
145 1 6.9450504822926451e+00 2.0475270914720038e+00 5.2045687282559694e+00 0 0 0
146 2 7.8018002917839713e+00 1.9111896325349331e+00 5.6392018262595967e+00 0 0 0
147 2 6.7849294190618714e+00 3.0082966051232818e+00 5.3969499907200316e+00 0 0 0
148 1 9.7059232246159226e+00 4.0143006570623356e+00 1.1916093755541919e+01 0 0 0
149 2 1.0033208062136818e+01 4.2016703932128099e+00 1.0967181695530673e+01 0 0 0
150 2 1.0482356907617973e+01 3.7095177842001705e+00 1.2424549702228274e+01 0 0 0
151 1 9.6427701690742840e+00 9.1851394060892506e+00 5.1209664695990194e+00 0 0 0
152 2 9.3493873124826727e+00 1.0055202383619934e+01 5.5400161620171584e+00 0 0 0
153 2 1.0060252935257449e+01 9.4657000587575748e+00 4.2789261941272150e+00 0 0 0
154 1 1.1839652650356888e+01 1.0923277233451467e+01 1.1904766283891615e+01 0 0 0
155 2 1.1283126930890241e+01 1.0171570490106300e+01 1.1707019411993366e+01 0 0 0
156 2 1.2111414753262000e+01 1.1169007782395440e+01 1.0975004096220990e+01 0 0 0
157 1 1.4392494496427116e+01 2.3853824595318844e+00 5.2397140961627917e+00 0 0 0
158 2 1.5149669938985427e+01 2.0279446427393357e+00 5.7828575765767454e+00 0 0 0
159 2 1.4613702260630861e+01 2.3218418502429037e+00 4.2727931209187640e+00 0 0 0
160 1 1.6923617364102654e+01 4.1178767926301258e+00 1.1631885085549216e+01 0 0 0
161 2 1.6472762618238633e+01 4.9952658707481472e+00 1.1785376543471264e+01 0 0 0
162 2 1.6254407562521124e+01 3.5016186824306232e+00 1.2019440456218696e+01 0 0 0
163 1 1.6895934576142714e+01 9.2787810110843107e+00 4.9956930829277164e+00 0 0 0
164 2 1.6565214858993688e+01 1.0159532664251401e+01 5.1658443378729997e+00 0 0 0
165 2 1.7440177110240874e+01 9.4209352858336750e+00 4.1748590692235714e+00 0 0 0
166 1 1.9221026606077015e+01 1.1143536764423585e+01 1.1823431344717228e+01 0 0 0
167 2 1.8767483622410570e+01 1.1969423696126016e+01 1.2077660788666558e+01 0 0 0
168 2 1.9734506235888926e+01 1.1514534687815450e+01 1.1096527748363625e+01 0 0 0
169 1 9.2294130235884744e+00 4.3350605190119946e+00 6.0699333664721840e+00 0 0 0
170 2 9.9548893380462271e+00 3.9101233152723274e+00 5.6002497880150228e+00 0 0 0
171 2 8.5953783765718992e+00 4.6145224336879203e+00 5.3797261233138016e+00 0 0 0
172 1 1.1691115708206759e+01 6.1824900888204848e+00 1.3219474189223703e+01 0 0 0
1082 2 8.4723583493341330e+00 1.8065347914955382e+01 3.5925794428129676e-01 0 0 0
881 2 2.0932050102622302e+01 2.0647803520748909e+01 1.3626781625095310e+01 0 0 0
175 1 1.1510317224977420e+01 1.1295669238957872e+01 6.0735740772848104e+00 0 0 0
176 2 1.2338235021918607e+01 1.0899027181054034e+01 5.6970088108296730e+00 0 0 0
177 2 1.1785069903548123e+01 1.2079366069313382e+01 6.5556992657356448e+00 0 0 0
178 1 1.3961867309765235e+01 1.3248791646280120e+01 1.3069858263914851e+01 0 0 0
179 2 1.3422001627188367e+01 1.3558134816437855e+01 1.2310790434868826e+01 0 0 0
180 2 1.4588277069781840e+01 1.2604148641657646e+01 1.2679202279402675e+01 0 0 0
181 1 1.6314547897488005e+01 4.3238268203559054e+00 6.2410108853253616e+00 0 0 0
182 2 1.7088342903124843e+01 3.8928058107273014e+00 5.7078034711096066e+00 0 0 0
183 2 1.6528943073342123e+01 5.2793990765082732e+00 6.5753153246478160e+00 0 0 0
184 1 1.8739358271881684e+01 6.3380486610665692e+00 1.3190374851023154e+01 0 0 0
512 2 2.0028002717134626e+01 1.1101630818618419e+01 5.0215376047940925e+00 0 0 0
1132 1 1.4708492061923531e+01 2.3436954295904954e+01 1.2271433032168238e+01 0 0 0
187 1 1.8759560645842246e+01 1.1565410411512341e+01 6.2686308055976783e+00 0 0 0
188 2 1.8476185397144864e+01 1.1031586440581698e+01 7.0685274242782672e+00 0 0 0
189 2 1.9187592051534253e+01 1.2347901210513623e+01 6.6146235273241176e+00 0 0 0
190 1 2.1613279920881887e+01 1.3194568398449467e+01 1.2880236986547708e+01 0 0 0
127 1 5.8466406115198133e+00 1.0060575093786534e+01 4.4989204735366961e+00 0 0 0
192 2 2.0924066139551844e+01 1.3271128477888899e+01 1.2172765856735561e+01 0 0 0
193 1 8.1650554082325417e+00 2.3903831063416980e+00 2.7899051712990550e+00 0 0 0
194 2 7.6385750450221392e+00 2.2628841435655276e+00 3.5950662484640783e+00 0 0 0
195 2 9.0121316777955904e+00 2.5449411513202493e+00 3.1208720144238984e+00 0 0 0
196 1 1.1151067780548541e+01 4.3589492387822961e+00 9.6318970015327210e+00 0 0 0
197 2 1.1183344121185188e+01 3.6073235874897627e+00 9.0090448164772265e+00 0 0 0
198 2 1.1930439835807674e+01 4.3487658062468597e+00 1.0297787649447232e+01 0 0 0
199 1 1.1001756169614930e+01 9.9103571917787647e+00 2.5793339901374313e+00 0 0 0
200 2 1.1017756608087955e+01 9.1937297127654158e+00 1.9424661542302719e+00 0 0 0
201 2 1.1896716363198029e+01 1.0012374061429918e+01 2.9732829467510862e+00 0 0 0
202 1 1.3522528278918765e+01 1.1344262146398545e+01 9.5432590649124815e+00 0 0 0
203 2 1.4305035428303450e+01 1.1224218727944907e+01 1.0072661204388435e+01 0 0 0
204 2 1.3528305861853639e+01 1.0658599656640479e+01 8.8293718551876772e+00 0 0 0
205 1 1.5675856228540908e+01 2.5160721750087265e+00 2.6579758106809765e+00 0 0 0
959 2 2.7553876637717178e+01 2.6847012256187391e+01 1.2319647661876513e+01 0 0 0
998 2 1.8173980389249675e+01 1.5813811406495805e+01 8.5695816137348513e-01 0 0 0
208 1 1.8242524016559297e+01 4.4219371559948257e+00 9.3946779644103255e+00 0 0 0
209 2 1.7596255190478413e+01 4.1692939683371506e+00 1.0083937556455343e+01 0 0 0
941 2 1.6431648985088302e+01 1.9821681136589774e+01 1.3704610545158680e+01 0 0 0
211 1 1.8633225156175268e+01 9.8323048991088040e+00 2.6499161901402029e+00 0 0 0
286 1 2.2415638757729781e+01 1.4809110528706601e+01 9.4430487417280755e+00 0 0 0
213 2 1.8364654684705730e+01 1.0663118571568129e+01 2.2124011285456100e+00 0 0 0
214 1 2.0755749598608997e+01 1.1571359098415018e+01 9.3473977881138701e+00 0 0 0
327 2 1.0899739297882652e+01 3.5939931107863514e+00 1.8342612834453176e-01 0 0 0
284 2 1.9915282464730673e+01 1.2738961304883484e+01 1.9378979873829709e+00 0 0 0
217 1 5.7341693459395948e+00 1.4764402838790955e+00 1.4497025076536001e+00 0 0 0
218 2 4.8843430901824485e+00 1.0410850753993626e+00 1.3257564991897137e+00 0 0 0
219 2 5.9279714545273503e+00 1.9179919356716111e+00 6.0526888320641337e-01 0 0 0
220 1 8.5630691162764236e+00 3.0849217050829814e+00 8.5777633041160950e+00 0 0 0
221 2 8.5736107518477578e+00 3.8444094781046032e+00 9.2111082757001359e+00 0 0 0
222 2 8.8283884102726642e+00 3.4845094626575288e+00 7.7183400224918000e+00 0 0 0
223 1 8.1488429909085660e+00 8.3225372677077569e+00 1.6529217013497279e+00 0 0 0
224 2 8.7419581220637568e+00 7.6985386234962485e+00 2.0870548009109857e+00 0 0 0
225 2 8.6950197044727915e+00 8.6364485495104919e+00 8.8620912848575872e-01 0 0 0
226 1 1.0767990131696333e+01 1.0218274135702869e+01 8.4812968332863488e+00 0 0 0
227 2 1.1385093967296250e+01 9.5937637902022477e+00 8.8141802520205861e+00 0 0 0
228 2 1.0962047966267402e+01 1.0332902900977418e+01 7.4944350959429276e+00 0 0 0
229 1 1.3179574938882588e+01 1.1935806618193319e+00 1.4739911425294716e+00 0 0 0
230 2 1.2340243646791025e+01 7.1198390900332464e-01 1.6492563539452862e+00 0 0 0
231 2 1.2995954184406996e+01 2.0068193083948529e+00 1.9466092997361035e+00 0 0 0
232 1 1.5526350495376944e+01 2.9017511254229826e+00 8.7011756964986500e+00 0 0 0
233 2 2.6354005222368567e+01 3.0297005731371769e+01 9.0230718073075451e+00 0 -1 0
234 2 1.5767667312375558e+01 3.2367977179287450e+00 7.8121787773846538e+00 0 0 0
235 1 1.5943332614202456e+01 8.4785928933244481e+00 1.6974184811279460e+00 0 0 0
236 2 1.6306334261431804e+01 8.6910322248806899e+00 8.3772464941339575e-01 0 0 0
237 2 1.6461264983585473e+01 7.7393932186267334e+00 2.0552732444230726e+00 0 0 0
238 1 1.8179719737249219e+01 1.0217137116242805e+01 8.6068341549381948e+00 0 0 0
239 2 1.8632148751161253e+01 9.4377335755346472e+00 8.9328510288697824e+00 0 0 0
240 2 1.8267735168479611e+01 1.0970861856302218e+01 9.1998637163742369e+00 0 0 0
241 1 7.5925406777073317e+00 4.3894484124548763e+00 8.8588573595701892e-01 0 0 0
242 2 7.6056834862758347e+00 3.7288368203689504e+00 1.5951655975397721e+00 0 0 0
243 2 7.1023701580796601e+00 5.1637283911634473e+00 1.2045734948431190e+00 0 0 0
244 1 1.0464279660521990e+01 6.1071748730177298e+00 7.6056089692965019e+00 0 0 0
245 2 1.0811502191205591e+01 5.5692840919251623e+00 8.3919864975192926e+00 0 0 0
246 2 9.9979602717320439e+00 5.4488256623997433e+00 7.0672869547418289e+00 0 0 0
247 1 1.0049087990546129e+01 1.1840479020263977e+01 7.2379807700002485e-01 0 0 0
248 2 9.5104802568843336e+00 1.2471752398125274e+01 1.1633075072953538e+00 0 0 0
249 2 1.0455375436756482e+01 1.1311863337704111e+01 1.4377898718943953e+00 0 0 0
250 1 1.2575869531563750e+01 1.3397767563900265e+01 7.9352057148284976e+00 0 0 0
251 2 1.2869231211181205e+01 1.2651101611666139e+01 8.5069590132884443e+00 0 0 0
252 2 1.3364522163770449e+01 1.3907442361797214e+01 7.5186835962358884e+00 0 0 0
253 1 1.5306131562783477e+01 4.4103202800254522e+00 5.5410441291554879e-01 0 0 0
254 2 1.5442494440779749e+01 3.7791664241127654e+00 1.3580785720457063e+00 0 0 0
255 2 1.4614464326537282e+01 5.0319050875048905e+00 8.9401629834419705e-01 0 0 0
256 1 1.7136703396454067e+01 6.4251255611549389e+00 7.5547993836641778e+00 0 0 0
257 2 1.7461568302847432e+01 5.7490359744924273e+00 8.1905751290295967e+00 0 0 0
258 2 1.6631582502723784e+01 7.0487213237703426e+00 8.0788605811869516e+00 0 0 0
259 1 1.7559496533007412e+01 1.1715743597302014e+01 7.2828838044727051e-01 0 0 0
260 2 1.6833562096788118e+01 1.2330452316794656e+01 1.0213082623531289e+00 0 0 0
206 2 1.6485638765690535e+01 2.6920182589303057e+00 3.1652175120122030e+00 0 0 0
262 1 2.0068923415828774e+01 1.3608219265399551e+01 7.5902326794343686e+00 0 0 0
263 2 2.0376997116684954e+01 1.3185604817983009e+01 8.3714889022306753e+00 0 0 0
264 2 2.0720869285167939e+01 1.4260611469779919e+01 7.1209812656115981e+00 0 0 0
265 1 9.5419915384201470e+00 6.2227637002496197e+00 2.8920090802268583e+00 0 0 0
266 2 8.8213467627798607e+00 5.7672687941423497e+00 3.3926141682219320e+00 0 0 0
267 2 9.7000490565676607e+00 5.6675369337985613e+00 2.1358189851133527e+00 0 0 0
268 1 1.2294492420609384e+01 7.9911983796807515e+00 9.5127712744538524e+00 0 0 0
269 2 1.2645305900163574e+01 7.4690753394689340e+00 8.7527174737450668e+00 0 0 0
270 2 1.1526024888172142e+01 7.4954527577694776e+00 9.8685638526238595e+00 0 0 0
271 1 1.2239862611862172e+01 1.2921655203602333e+01 2.6417316909409765e+00 0 0 0
272 2 1.2922870204863381e+01 1.2744177934819447e+01 3.2985775128531132e+00 0 0 0
273 2 1.1388422898988155e+01 1.2755691626649817e+01 3.1568366646078787e+00 0 0 0
274 1 1.4636728652797769e+01 1.4740260663420285e+01 9.4833463460492524e+00 0 0 0
275 2 1.4478604404888396e+01 1.5532512952917854e+01 8.9565122708646800e+00 0 0 0
276 2 1.5233195687324180e+01 1.5132465888479258e+01 1.0190564424090201e+01 0 0 0
277 1 1.7201916714047147e+01 6.1364775143924248e+00 2.7478109015763827e+00 0 0 0
278 2 1.6428531070292248e+01 5.8389440914714639e+00 3.2565675139089461e+00 0 0 0
1143 2 2.0534346292474563e+01 2.2050196245702807e+01 5.2077488530663842e+00 0 0 0
280 1 1.9552137085913841e+01 8.0822606302646314e+00 9.5752120030238501e+00 0 0 0
320 2 5.8731488883369609e+00 1.0939560649561447e+01 3.2995288999614791e-01 0 0 0
191 2 2.1308582948342988e+01 1.2542711275863017e+01 1.3509732367143755e+01 0 0 0
283 1 1.9641727146635141e+01 1.3364966184466669e+01 2.7068916934042200e+00 0 0 0
1139 2 1.7242101913537855e+01 3.0121299810548201e+01 1.3141260976275399e+01 0 0 0
1142 2 1.9170890291301038e+01 2.2318900956342283e+01 4.5121643990569540e+00 0 0 0
1190 2 1.0198393357533472e+01 2.2387116902903287e+01 6.3817864897574568e+00 1 0 0
850 1 1.1249658392249065e+01 2.3675291062063238e+01 7.2981130082483467e+00 0 0 0
288 2 2.2027593346583785e+01 1.5582413205975802e+01 8.9933088996769328e+00 0 0 0
289 1 6.2175215269787181e+00 6.5675510371771777e+00 1.5440478861876237e+00 0 0 0
290 2 6.0020557671523651e+00 6.6125250070181183e+00 2.4556358443559301e+00 0 0 0
291 2 6.9974834522550431e+00 7.2085375272925711e+00 1.3415739400915947e+00 0 0 0
292 1 8.5199533033497250e+00 8.6214531453196717e+00 8.6831599656891196e+00 0 0 0
293 2 8.9783326524919786e+00 7.8615782351265455e+00 8.2858370403219581e+00 0 0 0
294 2 9.2067290944239240e+00 9.2860218661478875e+00 8.6570949295305386e+00 0 0 0
295 1 8.5185315736039442e+00 1.3852661854907035e+01 1.6981197072592300e+00 0 0 0
296 2 8.2690988527050813e+00 1.3541496075005556e+01 2.6381739776723765e+00 0 0 0
297 2 7.7175745735105039e+00 1.4066680723876239e+01 1.2146277062779960e+00 0 0 0
298 1 1.1240934686444010e+01 1.5833077857516113e+01 8.7362970748334536e+00 0 0 0
299 2 1.1606084829212509e+01 1.5013139492170758e+01 8.4062475283758200e+00 0 0 0
300 2 1.0471081771643650e+01 1.6156092504118774e+01 8.1931980182794550e+00 0 0 0
301 1 1.3793860325601676e+01 6.5981611379833343e+00 1.6470043897684148e+00 0 0 0
302 2 1.3454916283515441e+01 6.5388546629156128e+00 2.5803178526643844e+00 0 0 0
303 2 1.4497289959315372e+01 7.2699466232466561e+00 1.7104196959637314e+00 0 0 0
304 1 1.5803507539958439e+01 8.7071625863114424e+00 8.5906808201959635e+00 0 0 0
305 2 1.5371417367121227e+01 8.6611607695309143e+00 9.4305595841660761e+00 0 0 0
306 2 1.6376405471310637e+01 9.4994050778379311e+00 8.7806341308973419e+00 0 0 0
307 1 1.5900272277346607e+01 1.3674020967999944e+01 1.7637189040712138e+00 0 0 0
308 2 1.5199909574109881e+01 1.4017413838181435e+01 1.1367010821752450e+00 0 0 0
309 2 1.6716038403596567e+01 1.4265526238459644e+01 1.7269012557386845e+00 0 0 0
310 1 1.8376567782064487e+01 1.5661308609531890e+01 8.8288163186560276e+00 0 0 0
311 2 1.8758286167528762e+01 1.4880740430565981e+01 8.3305528067453398e+00 0 0 0
312 2 1.7696965885221676e+01 1.5961647299869355e+01 8.2422748135492103e+00 0 0 0
313 1 3.5966630353265598e+00 4.8446398436112856e+00 1.1948994953920860e+00 0 0 0
41 2 2.1884657576054295e+01 9.5002504818777549e+00 1.2407414949944277e+01 0 0 0
315 2 4.2425998446067226e+00 4.5385378802423331e+00 1.8637079413686310e+00 0 0 0
316 1 6.3656250319537016e+00 6.3569471636922721e+00 7.9228433455151412e+00 0 0 0
317 2 6.6687738413474795e+00 7.0220179464138326e+00 7.2874372808453520e+00 0 0 0
318 2 5.7338890070491217e+00 6.7730443996304039e+00 8.5394294960919126e+00 0 0 0
319 1 6.3895332500805937e+00 1.1771782206847250e+01 6.7494261714819292e-01 0 0 0
1138 1 1.7429047633229629e+01 3.0295072362835860e+01 1.2188563553859195e+01 0 0 0
321 2 6.7948561808189964e+00 1.1443056396691189e+01 1.5052930686024111e+00 0 0 0
322 1 9.2609219539624483e+00 1.3643092801375808e+01 7.7433174086990144e+00 0 0 0
323 2 8.5711510873524226e+00 1.4091210306315750e+01 8.2548292924478623e+00 0 0 0
324 2 8.8843402177863577e+00 1.2780433431409708e+01 7.5022036874637221e+00 0 0 0
325 1 1.1271405718074437e+01 4.3885326243058103e+00 7.0139314557616483e-01 0 0 0
1146 2 2.2285554920962905e+01 2.2789399183365610e+01 1.1729133400247743e+01 0 0 0
847 1 8.5855155986482217e+00 2.1943177470156563e+01 6.2617498063152111e-01 0 0 0
328 1 1.3739056957109753e+01 6.5893828324111325e+00 7.7692908383631414e+00 0 0 0
329 2 1.3238811845564754e+01 5.9313090964262809e+00 7.2530311127332228e+00 0 0 0
330 2 1.4264330901611210e+01 6.0398670941477128e+00 8.4085248437786237e+00 0 0 0
331 1 1.3782096303316193e+01 1.1609038083308985e+01 8.6295739112633074e-01 0 0 0
332 2 1.3051588348901131e+01 1.2051697868232923e+01 1.2441927796030163e+00 0 0 0
333 2 1.4324389893242984e+01 1.1386429689636785e+01 1.6537951396572970e+00 0 0 0
334 1 1.6148240428448894e+01 1.3288525996132380e+01 7.5522805247290039e+00 0 0 0
335 2 1.6512637909620373e+01 1.3990786863913364e+01 7.0471993370189532e+00 0 0 0
336 2 1.5607648219498726e+01 1.3737215830185940e+01 8.2136876473071467e+00 0 0 0
337 1 4.3179715234943679e+00 6.6432858555289247e+00 4.1389617255766629e+00 0 0 0
338 2 4.4318563596448310e+00 5.7975328808173394e+00 4.7125717160067886e+00 0 0 0
1131 2 1.2100164411400026e+01 2.1025163703927234e+01 4.6277098999511628e+00 0 0 0
340 1 6.8751696687429682e+00 8.0146652865475296e+00 1.1001858261647259e+01 0 0 0
119 2 1.6872002309221511e+01 1.2618168130826875e+01 1.3371495793000015e+01 0 0 0
342 2 7.6514626689061682e+00 8.3974990676287611e+00 1.0572756466223897e+01 0 0 0
343 1 7.3395555522698013e+00 1.3129340393905830e+01 4.2187223685078363e+00 0 0 0
48 2 2.3588370243032649e+01 1.5978222204824229e+01 1.3331655401549082e+01 0 0 0
1089 2 1.1327386817432215e+01 2.5278730667236267e+01 2.3558563102086422e-01 0 0 0
346 1 9.5525721762638618e+00 1.5118252349794604e+01 1.1123620079983114e+01 0 0 0
347 2 1.0066780964973979e+01 1.5213948364297096e+01 1.0353872615156893e+01 0 0 0
348 2 9.7768831704182375e+00 1.4240830150553451e+01 1.1559818917693267e+01 0 0 0
349 1 1.2008727679859001e+01 6.4423068468559430e+00 4.0820660752421221e+00 0 0 0
350 2 1.1913022187589579e+01 7.1376530445585864e+00 4.8011689397010260e+00 0 0 0
351 2 1.1163810866439810e+01 6.2351832639278717e+00 3.6961558872651912e+00 0 0 0
352 1 1.4466964193225769e+01 8.3643114429388632e+00 1.0804676154736814e+01 0 0 0
353 2 1.4599926073479473e+01 7.6116829942761743e+00 1.1339841236218229e+01 0 0 0
354 2 1.3630406416382129e+01 8.1040197461102075e+00 1.0317530393383390e+01 0 0 0
355 1 1.4527956333469223e+01 1.3386285886830850e+01 4.2782739284635518e+00 0 0 0
356 2 1.5018033222552081e+01 1.2769352856374411e+01 4.8619173191616740e+00 0 0 0
357 2 1.4990547112488560e+01 1.3443350271636579e+01 3.4257741121596665e+00 0 0 0
358 1 1.6576107902419807e+01 1.5547255048125963e+01 1.1172082248050989e+01 0 0 0
359 2 1.6802516746996051e+01 1.6229508629745446e+01 1.1829673405305721e+01 0 0 0
360 2 1.7146513806641469e+01 1.5737727739032197e+01 1.0380001016318888e+01 0 0 0
361 1 7.0410458081353511e+00 7.6510846484306105e+00 5.5172540989133054e+00 0 0 0
362 2 6.4593768131409952e+00 8.3867601397098213e+00 5.2757363919706100e+00 0 0 0
363 2 7.9196110954153367e+00 8.0790237037225161e+00 5.3851307599033422e+00 0 0 0
364 1 9.4006393307098346e+00 9.1905097324656051e+00 1.2195902662299677e+01 0 0 0
365 2 8.8738005174672221e+00 1.0017394375847417e+01 1.2036367471597025e+01 0 0 0
366 2 9.1902657202077691e+00 8.9512568239241492e+00 1.3094156706245451e+01 0 0 0