LAMMPS data file via write_data, version 8 Apr 2021, timestep = 4656000

972 atoms
2 atom types

0.13936894043456236 19.851684059556177 xlo xhi
0.1317817438092773 19.859271256201957 ylo yhi
0.1581657898581326 20.64260621016036 zlo zhi
-0.6237501219710642 -0.07873501728194639 0.14168967821349984 xy xz yz

Masses

1 16
2 2

Atoms # atomic

96 2 15.64642364120009 1.3044410281906798 4.442146393920477 0 0 0
61 1 9.01103911933353 5.257032385981996 6.766464675638792 0 0 0
4 1 3.972880102841903 1.205643034774121 3.4773677703811954 0 0 0
5 2 4.182903921213423 2.1344437683562347 3.3934314720806116 0 0 0
6 2 3.2149064875909024 1.08999303234846 4.033307042609713 0 0 0
7 1 5.7383338523013085 4.581544738634818 5.7826534048872364 0 0 0
8 2 6.588405273201874 4.475431884686249 5.277706043765117 0 0 0
9 2 5.063184422081777 4.285612935221246 5.181037199751248 0 0 0
10 1 1.2165433730828596 3.958635268670763 4.171422109065635 0 0 0
12 2 0.9191113497197141 4.756032914895367 3.652838367630913 0 0 0
13 1 4.536990929161657 5.966222260921009 1.5744387577932235 0 0 0
14 2 4.050853016079446 6.6876903770097025 2.062903405316688 0 0 0
16 1 3.9598477854222947 4.143144381140049 3.7804029402315513 0 0 0
17 2 3.9955453192101915 4.70577891042189 3.0001047648930506 0 0 0
18 2 3.050138525969055 4.208300206287769 4.032595385500264 0 0 0
178 1 11.95045434797526 9.078720126830438 0.42535372375088093 0 0 0
24 2 2.196167498254655 1.4347942995556786 6.091714148616583 0 0 0
25 1 2.8188130941533935 5.4030049318077475 6.856258208461982 0 0 0
26 2 2.827636547405521 5.858927239726843 6.036821373142904 0 0 0
27 2 3.4911311702748757 5.857040344340826 7.394376885059307 0 0 0
236 2 0.7867093653522456 0.21428897687425233 2.070701801255244 0 0 0
508 1 17.162737803596478 8.27870893787934 10.077512188837908 0 0 0
33 2 0.7442000593689934 2.678254508463131 3.114158566692882 0 0 0
35 2 6.164471260998196 2.4396423312479 1.0877735542111355 0 0 0
20 2 0.8111686549899535 7.0346488098689814 2.575240400124375 0 0 0
417 2 14.195133570838358 5.795214060183105 9.828443342656879 0 0 0
46 1 7.584556939062924 4.276110665459043 4.0132604257487 0 0 0
47 2 8.546561117813344 4.454473340703874 3.954326971313758 0 0 0
48 2 7.211677057133071 4.9514392995206915 3.3756345774544654 0 0 0
55 1 7.377444261522968 5.794886409187015 1.748215149622214 0 0 0
56 2 7.715471712406443 6.680155407597173 1.9056560421044322 0 0 0
57 2 6.4090426919105505 5.898163540706351 1.7063510541950864 0 0 0
63 2 8.353250788272286 5.427070597565387 7.5028772610165015 0 0 0
67 1 7.338379701074917 2.1673112273861235 2.4329355233228056 0 0 0
68 2 7.215006265738101 2.9624618375549363 3.060812339063257 0 0 0
69 2 8.177705785250089 2.5187358950304133 1.965697213498491 0 0 0
112 1 3.8014682146829717 7.750191762131348 3.369773210494449 0 0 0
113 2 4.559698746774267 7.41747081558904 3.918155121242913 0 0 0
114 2 4.038508050285915 8.716721722554576 3.281814633890152 0 0 0
130 1 1.8512619360141362 7.656975241741486 5.444915048674891 0 0 0
131 2 2.4336109675808717 7.793203199748514 4.666309360639696 0 0 0
132 2 1.9962503463819865 8.407935516026825 6.057847020825832 0 0 0
136 1 5.727504618394658 7.2247147667164375 5.07396260430172 0 0 0
137 2 5.62892420381762 6.277513832103865 5.341734328004212 0 0 0
138 2 6.74262780829549 7.395351813008382 4.98631326302233 0 0 0
166 1 8.49062847153733 7.43459328716018 5.338372562355604 0 0 0
167 2 8.561880278489864 8.043315065158488 6.065391701388164 0 0 0
175 1 7.245756447354828 8.786724813253619 2.012723102624519 0 0 0
74 2 16.623872347663053 2.5098024189632393 0.6130667084343686 0 0 0
177 2 6.385164232263268 8.986029917065851 1.574626331459295 0 0 0
73 1 15.780438000900393 2.7525149744618607 0.18171834903484438 0 0 0
435 2 1.7084172840631056 9.238216802835373 8.230388385677221 0 0 0
328 1 4.293825688577069 1.5502577903766845 10.3255869795059 0 0 0
325 1 2.697224690039707 2.602407085778095 7.32519641360254 0 0 0
326 2 2.8675343978294756 3.4895713761109657 6.960629885852769 0 0 0
327 2 3.5952269855217565 2.2955298667902198 7.492335530392255 0 0 0
337 1 4.870250681186622 5.983322334737099 8.655805862528206 0 0 0
338 2 4.5898239672842225 5.230739157873972 9.239079471968145 0 0 0
339 2 4.562604450422555 6.730109157878217 9.20515817374055 0 0 0
463 1 0.3406533908759847 8.633693120519242 9.156448864259191 0 0 0
485 2 10.52957025940738 9.713149741550716 10.12725247713175 0 0 0
345 2 1.4941034075747561 6.01944494426052 7.837383450057022 0 0 0
504 2 12.441361136871881 9.408273562109178 7.898900235469262 0 0 0
357 2 1.4812054911592742 2.148396044217303 8.723150265834127 0 0 0
358 1 5.516809313225186 2.292599059000499 7.126698498331412 0 0 0
359 2 5.440793366988117 3.1139666278044773 6.594423001488274 0 0 0
360 2 5.655660242643517 1.57731060670622 6.50385592020433 0 0 0
29 2 5.242675566616172 0.49994796473264436 4.506356987814357 0 0 0
363 2 8.515923132361923 2.393456890482302 7.700983353780366 0 0 0
102 2 18.23703032163643 1.0811566819255087 5.0375909299064565 0 0 0
379 1 7.389976640368547 6.154468197648114 8.696009319393598 0 0 0
380 2 7.385277110063224 7.091646327034503 8.892746569626196 0 0 0
381 2 6.4052615616198665 5.878012237185481 8.636835432978316 0 0 0
391 1 7.398315571091069 2.1847974100496352 8.933402789434144 0 0 0
393 2 6.530306273001073 2.4981097082542085 8.526959677755583 0 0 0
467 2 5.193599207515455 7.922888777237677 6.832178871590682 0 0 0
343 1 0.6656056198784649 6.167575892239416 8.44119378566751 0 0 0
499 1 6.997619569103782 8.947464687452175 9.134240701817763 0 0 0
64 1 12.245819351235392 0.9681285625525947 5.032802760719643 0 0 0
210 2 -0.007361517389450178 7.293319031591277 5.343586506821943 0 0 0
473 2 11.04478876020281 7.238031275150238 9.574442555689467 0 0 0
28 1 5.826807613629377 0.26166384397642617 5.212724236431055 0 0 0
168 2 8.732856695994775 6.566886537450823 5.784359228771649 0 0 0
364 1 10.58406833490292 1.4081588985800528 10.09205441639677 0 0 0
162 2 10.413836568980585 9.694774615849157 3.5725037604111827 0 0 0
710 2 8.333670366765082 5.4028634998667595 0.6060018600491389 0 0 1
433 1 2.38774669977344 9.460755159950416 7.524051823686594 0 0 0
344 2 0.7182614874302363 5.574027645134214 9.25301911427992 0 0 0
100 1 18.852891691475623 0.8516815612857805 5.718385747813566 0 0 0
211 1 13.81087772550413 8.636051705648192 2.1988992687252944 0 0 0
42 2 10.503257857922573 0.7030519424301047 2.1907545062286724 0 0 0
633 2 13.903014287926911 0.7907002827931112 9.076327721371554 0 0 0
15 2 3.8816410739430585 5.704715132396537 0.9105679707246679 0 0 0
11 2 0.5824985678565384 4.004114866752046 4.9393822461740085 0 0 0
361 1 9.05235126608269 2.632791994957466 6.90781857258346 0 0 0
471 2 8.290234186089844 9.622840888071607 7.878527076920616 0 0 0
362 2 8.862285361690954 2.0708065297842504 6.1249916817210455 0 0 0
356 2 0.4593811537996245 1.173650155537386 9.502528536949251 0 0 0
355 1 0.6190138979649736 2.1186006257662653 9.183268292126726 0 0 0
469 1 9.039632371202144 9.725658905372521 7.245538192929377 0 0 0
81 2 18.381080294975696 5.525405271520795 5.928199708148428 0 0 0
465 2 0.43850738350138296 7.686728106579339 8.979522603182977 0 0 0
505 1 15.640782137151726 9.663327272534245 6.983634369341906 0 0 0
176 2 7.363227353797611 9.384549716937478 2.7939767128447937 0 0 0
139 1 0.5225423639877574 8.697821975449616 2.732103302687329 0 0 0
140 2 0.5188977071866161 9.336152603046148 3.4319328741633996 0 0 0
500 2 7.047871419302339 9.68857431142505 9.775376690734003 0 0 0
408 2 14.016509128943694 3.5745029770734624 10.268465675001952 0 0 0
31 1 0.7664533602762342 2.0552893180129024 2.3462030911921516 0 0 0
37 1 9.318732475046865 2.5071148468002007 0.25648417857262273 0 0 0
3 2 2.0930673196242795 2.3404191031813686 0.9319106517847632 0 0 0
19 1 0.7213412340351152 6.170082329928651 2.040712267662052 0 0 0
79 1 18.507380683635727 4.581880226352434 5.777710947146791 0 0 0
95 2 15.42055591457697 0.26862243686299936 5.530290720390569 0 0 0
150 2 9.76042012254954 7.786157244460683 4.214568389319293 0 0 0
62 2 9.008172534823139 4.281650193947991 6.528439084409898 0 0 0
32 2 19.67818709359057 2.3993648153180245 1.891986385600321 -1 0 0
66 2 13.159480764850082 0.9644882783474586 5.040457641665815 0 0 0
106 1 18.4048761523515 2.502264056997102 0.7486206085996007 0 0 0
466 1 5.041964102124622 8.773318557387894 7.279200508967915 0 0 0
342 2 3.8771174090948617 3.131824649447531 10.21234789144419 0 0 0
501 2 6.14145812012671 8.988311805687136 8.644168002324287 0 0 0
413 2 17.13044019162328 3.4092677748694853 10.33543681799301 0 0 0
502 1 11.77877507319254 9.298465830693765 7.192979820317954 0 0 0
149 2 10.475692705475113 7.494228111976306 2.818676056119572 0 0 0
208 1 18.720612509628094 7.367466338669511 5.29500205574449 0 0 0
509 2 17.301207315023625 7.794266719142856 9.22863478577086 0 0 0
432 2 18.885849752575073 2.8079651957825376 8.356997019146478 0 0 0
472 1 10.86552025505085 8.008179658970505 10.212819934004589 0 0 0
147 2 8.291057944787486 9.04600980130766 0.5864923462981543 0 0 0
392 2 7.664109846432788 2.8449731715613416 9.61218038129658 0 0 0
535 1 13.806455953115586 9.363626981410269 9.138991753224866 0 0 0
431 2 18.314263195018395 3.5780604003108514 7.086534730838522 0 0 0
214 1 18.53580679603883 9.493307159846422 0.5995705872064897 0 0 0
537 2 13.81832709834224 8.402972461570966 9.429913956812273 0 0 0
77 2 17.633522597235288 1.0622482981453996 2.9260399421019825 0 0 0
180 2 10.951381728145838 9.060866945407332 0.5012173895117927 0 0 0
142 1 5.078222388318646 9.396828384908996 0.47292408978450656 0 0 0
212 2 14.628229016919853 8.942074156829893 1.7410890323984791 0 0 0
59 2 8.94695615789093 1.1463977801647371 4.038559658909758 0 0 0
21 2 19.451567149675768 6.084058592322124 1.9074623775898698 0 0 0
182 2 16.83312701303138 9.339810194832857 0.5344787753833095 0 0 0
111 2 1.42623975253862 9.372426540967815 0.9851481045493823 0 0 0
506 2 15.24208648195407 9.014586057488298 6.352244919970885 0 0 0
94 1 15.032945658349979 1.082945504013822 5.11702329770185 0 0 0
43 1 12.38519878148676 4.282067099110243 5.238104656630879 0 0 0
44 2 12.353338749621901 5.1735483821998836 5.541729830715925 0 0 0
45 2 12.268053237238844 3.7500109931316254 6.062654930436863 0 0 0
49 1 10.541392734193218 6.268945949996424 1.6411725619981499 0 0 0
50 2 10.376227769217346 5.56828146463363 2.312050212059959 0 0 0
53 2 10.849222857291183 4.134855942218211 4.189488619746415 0 0 0
60 2 7.615083976482801 0.8783263988973414 4.6429289420050095 0 0 0
71 2 12.346998873287257 2.5667074614876038 1.169684657253069 0 0 0
539 2 18.55519094751368 8.61305377508735 6.572809303704142 0 0 0
76 1 17.387722520648246 1.5873523062120474 3.69449504443651 0 0 0
78 2 17.198192987427056 2.523011160020763 3.507003611245119 0 0 0
80 2 17.93146735747053 4.353103311197308 4.999525451635246 0 0 0
329 2 4.506305697738351 0.956277124212037 9.526520413463109 0 0 0
82 1 14.39427153365367 4.092304216178721 3.5054321655342 0 0 0
83 2 13.713508138565055 3.966114058996728 4.205485332724012 0 0 0
84 2 14.042801008942465 4.871791007859273 3.0209096245745988 0 0 0
85 1 17.524694194858256 5.993895265582373 1.5839204132182387 0 0 0
87 2 17.384789365810022 6.891674478437405 2.0313963713342615 0 0 0
88 1 17.055907743214682 4.134039749637894 3.60318142554546 0 0 0
89 2 17.040558556018116 4.605220421156716 2.72294823856372 0 0 0
90 2 16.06507243182242 4.0824461029494525 3.7745121781932536 0 0 0
91 1 13.617351393066189 5.964798244732511 1.7092860421816738 0 0 0
92 2 13.849650056669507 6.905612723034024 1.8025301338892752 0 0 0
93 2 12.669427362498304 5.984864826190789 1.520460912865774 0 0 0
97 1 15.616551269040487 5.781361207987373 7.033395336236914 0 0 0
98 2 16.34330185043214 5.941055266248846 7.673402093264489 0 0 0
99 2 15.581382756098154 4.81613084443275 6.864321666947102 0 0 0
103 1 13.661170581587818 2.0233805474532174 2.0246030814184066 0 0 0
104 2 13.831847995652625 2.6744311333625426 2.752232973133335 0 0 0
105 2 13.956428926853855 1.1507714223914258 2.2856641664044144 0 0 0
536 2 14.556479782517291 9.482685890723648 8.514192760369637 0 0 0
51 2 10.041720382106728 5.944463601529073 0.905681509717426 0 0 0
675 2 1.5221319504301742 5.637582337748977 0.6787585521735591 0 0 0
540 2 17.3818355732193 9.505577709277587 7.1479363524346615 0 0 0
172 1 12.363453834756623 7.03847374796908 5.745128444474285 0 0 0
173 2 12.05425298146066 7.7089999979477595 6.378788384102357 0 0 0
174 2 11.715568204326871 7.095421419324672 5.027710779512503 0 0 0
184 1 17.262292820264964 8.049941510603674 3.1786290268879935 0 0 0
185 2 17.258020912621394 9.005395041120822 3.367268069794147 0 0 0
186 2 16.500411448783257 7.745492783857396 3.7803122670858493 0 0 0
202 1 15.060107545868696 7.547062076316172 5.11543766626939 0 0 0
203 2 14.156992468039878 7.447330213322662 4.833288163736059 0 0 0
204 2 15.232525895637306 6.763527653477938 5.750068270701874 0 0 0
41 2 11.204821019506047 1.376665416197942 3.383094617030773 0 0 0
209 2 18.46712392563829 7.644359634371313 4.4278939277936225 0 0 0
468 2 4.059141458216875 8.915494443049818 7.3418440977997195 0 0 0
101 2 18.54095342202097 1.3609907209957992 6.4927434818167304 0 0 0
340 1 3.8025011801414896 4.1042454703866635 10.371511053425014 0 0 0
141 2 -0.14109167743899084 8.980855775228662 2.081604427038819 0 0 0
373 1 10.945102970383012 5.96647895753666 8.305709425892696 0 0 0
375 2 11.839223322835016 6.122845680367592 8.014395738786904 0 0 0
394 1 11.654851665971218 2.4226111096658567 7.1150701855350995 0 0 0
395 2 10.707412927335074 2.628732271686748 7.085471441438987 0 0 0
396 2 11.913914954512988 1.754329913044869 6.526078170496794 0 0 0
397 1 15.349291224191491 3.1051176011575357 7.15290609446609 0 0 0
398 2 16.289855362124435 3.0042946646178357 7.422210569442464 0 0 0
399 2 15.067432919065078 2.3693005921051324 6.595001948838917 0 0 0
538 1 18.34470095466472 9.302390157982542 7.249754292140586 0 0 0
409 1 17.71359637992329 6.048740263239443 8.707817211576156 0 0 0
410 2 17.65269465024411 5.45047582869736 9.46892471704051 0 0 0
411 2 18.62142713734473 6.139499216428569 8.353775817613574 0 0 0
415 1 13.879240349316454 6.436893491763441 9.18063124958383 0 0 0
416 2 14.347556644343845 6.179217105879269 8.306316182967883 0 0 0
427 1 13.601564948931854 2.415451258918341 9.154498509164485 0 0 0
428 2 12.732097568170678 2.300530309049526 8.680557614233498 0 0 0
429 2 14.2252881887086 2.6636343293874805 8.458646715436895 0 0 0
430 1 18.138331248259302 2.8269558250030236 7.742761146931684 0 0 0
52 1 10.23464766822628 4.162620291890988 3.465167295329794 0 0 0
464 2 19.353116323986818 8.971596909573936 8.624430937052397 -1 0 0
148 1 10.484207735217307 8.061258098312399 3.5771622498665763 0 0 0
365 2 10.670037133731638 1.0577462842625187 9.22207354708635 0 0 0
75 2 15.124718625612976 2.522650861627234 0.8878460867270509 0 0 0
2 2 3.50309459211674 2.521958388239975 0.4053902160289482 0 0 0
374 2 10.34536065005541 5.804349332541077 7.5635498084838115 0 0 0
54 2 10.213537010345409 3.357135952665882 2.9443984930424416 0 0 0
58 1 8.523703975450573 0.9149285142221035 4.843481531811149 0 0 0
22 1 1.9098770712820847 0.9506743530274357 5.299263375836771 0 0 0
86 2 16.856965570949658 5.899178470982539 0.8280283365334408 0 0 0
401 2 17.569851959217758 0.9566658570168084 9.618122302746102 0 0 0
40 1 10.422731815580628 1.473773888507665 2.7770279824263406 0 0 0
503 2 10.856884376953372 9.51189422791697 7.425364511088456 0 0 0
213 2 13.024927042206617 8.868002235498768 1.617655484934026 0 0 0
747 2 14.55796804746557 5.644094517542328 0.21060970899183354 0 0 0
23 2 0.9303459440822688 1.024760556504752 5.263678620445619 0 0 0
596 2 7.518054596452904 0.2981996029434304 9.039415553776719 0 0 0
378 2 10.922802386028524 4.52473088144918 9.722532140003041 0 0 0
34 1 5.388125051778987 2.5676165850634804 0.5747481322092738 0 0 0
335 2 0.5405319944745264 3.638497931032001 10.189557423718277 0 0 0
109 1 2.0418935554263666 9.680704662753842 0.3113008733702147 0 0 0
70 1 11.741673795561715 2.6906878187940917 0.4146369341395881 0 0 0
181 1 15.867531546286356 9.536787000035167 0.45441681098460124 0 0 0
372 2 7.985046236178569 5.0890361755496185 10.01444346771283 0 0 0
143 2 4.140949197667706 9.67346499678661 0.633880723051782 0 0 0
366 2 10.359665728448672 2.329254599795341 9.996891528512368 0 0 0
108 2 18.765210874229776 1.7864783215541564 0.1822918614057566 0 0 1
38 2 10.289550113989204 2.4436838432044823 0.3879314883863116 0 0 0
272 2 7.273598577360378 0.298188722534683 2.217042754880968 0 0 0
191 2 14.221350898916652 9.909477270105718 3.3524936047066336 0 0 0
341 2 2.8606220302866987 4.289440377156822 10.373023344990651 0 0 0
522 2 16.85059480239725 10.015306283083202 10.295157287375117 0 0 0
107 2 18.510452701161373 3.2736418798172364 0.1841495777343748 0 0 1
714 2 13.216901642179856 1.1294842917573007 18.764795344285922 0 0 0
400 1 17.444984894398292 1.3728222091508004 10.519825002585257 0 0 0
829 1 15.485753662222267 9.797273895448159 13.993975355133832 0 0 0
331 1 5.708711042578429 4.8526713923883005 12.248463693245615 0 0 0
332 2 6.506336952662748 4.7825846189036625 11.746031378405096 0 0 0
333 2 4.937623008556202 4.697846082640591 11.654415090101308 0 0 0
757 1 2.5235320012346296 9.347936914447319 13.709455054443952 0 0 0
667 1 0.1032935369489018 6.532393273934787 15.637730196341366 0 0 0
348 2 2.24861101453315 1.939871990184709 12.419201240429187 0 0 0
349 1 2.2915103006267645 5.838134318267106 13.80047911964325 0 0 0
350 2 2.02696280180414 6.3317533693269255 12.995944290488683 0 0 0
351 2 2.4817809754773914 4.918149666266123 13.60329413866757 0 0 0
656 2 5.667252879088023 5.6813706679769895 19.470898478808962 0 0 0
385 1 8.721430461848696 5.2151661124102375 13.623738652912069 0 0 0
387 2 8.049950650708617 5.480382743838044 14.22809625416258 0 0 0
839 2 13.842835278008378 9.803354610425208 16.961593916733875 0 0 0
454 1 1.781343362303922 7.457760621707836 11.813344788198952 0 0 0
456 2 2.0466670412133476 8.164671939924338 12.447048986677006 0 0 0
460 1 6.232744004458468 7.503080253947175 12.638694269530806 0 0 0
461 2 6.096275986894894 6.549052847383556 12.621318810651342 0 0 0
462 2 7.115314448613345 7.757339523882383 12.44993649288583 0 0 0
830 2 16.284170020847256 9.702007119326801 14.543891841270053 0 0 0
490 1 9.011604480002983 7.482663322724195 12.222498008724425 0 0 0
491 2 9.167569579979919 6.56129056795051 12.539866818667084 0 0 0
742 1 15.054943868759057 1.1321482860373293 18.690600204445495 0 0 0
649 1 2.6113701737349277 3.007037264112719 13.789543081664224 0 0 0
650 2 3.533307183731528 2.7546558977931586 14.0478096773656 0 0 0
651 2 2.0755763947346253 3.0199062229998628 14.631083850406744 0 0 0
652 1 4.326118131934863 1.372015458883707 16.759862642232424 0 0 0
653 2 4.262516953386784 2.288226838955271 16.529585745069475 0 0 0
654 2 4.942042383767809 1.301990267257023 17.56699003747915 0 0 0
655 1 5.701393791096487 4.742480468901648 19.222195060617405 0 0 0
657 2 6.519964750503043 4.641132373283051 18.61430546005012 0 0 0
658 1 1.1366809496381296 4.747526456463034 17.675033542696855 0 0 0
659 2 0.9423539914947936 3.9954388985101987 17.016524417163733 0 0 0
660 2 0.9099810175156278 5.555685340971344 17.203886013565057 0 0 0
661 1 4.225715977293084 6.2817462251450475 15.37712599701241 0 0 0
662 2 4.132930631945788 5.7232700158433785 16.151740079655323 0 0 0
663 2 3.4597290462824484 6.06145931359267 14.834748731871894 0 0 0
664 1 3.9496681109142986 4.194147961734312 16.90929023223583 0 0 0
665 2 3.064760581366012 4.296504702867852 17.201095841385406 0 0 0
666 2 4.444325151830416 4.198828417887456 17.732975579844457 0 0 0
669 2 0.5203258221476872 6.291953745422259 14.79090542265587 0 0 0
671 2 2.1931435753869484 1.7675430112375503 19.273130870455017 0 0 0
682 1 5.311553610038382 2.6053277072055763 14.089799728273535 0 0 0
683 2 5.595926346720317 3.4373937485107016 13.644086689791182 0 0 0
684 2 5.511580964395208 1.98743840483925 13.355115098394565 0 0 0
694 1 7.577436473220778 4.226607801177696 17.456505215298908 0 0 0
695 2 8.526093570849733 3.95922640182551 17.658290751939273 0 0 0
696 2 7.293248541408259 3.4322550740613367 16.984849763569986 0 0 0
703 1 6.999077714727199 6.075646084423177 15.463741486389916 0 0 0
704 2 7.155849098998839 5.508735554577235 16.26237950029683 0 0 0
705 2 5.973087418019138 6.118187932179556 15.407511632900492 0 0 0
715 1 7.402769805311305 2.0299000556005287 16.09646159156432 0 0 0
716 2 6.611728371312024 2.061151607381141 15.562186649687861 0 0 0
717 2 8.167992308572936 2.3279465877064345 15.47268565923162 0 0 0
426 2 0.3042538885806382 1.316373333957952 12.13560298274263 0 0 0
760 1 3.7462691275300033 8.231473311850062 17.266034276578164 0 0 0
761 2 3.8211489981112297 7.598343391967608 16.51361572907544 0 0 0
762 2 4.444037669311935 7.848733947319696 17.88017003096075 0 0 0
778 1 1.740079179390349 7.62697146680535 18.918696856270856 0 0 0
779 2 2.418667455767766 7.716243246511769 18.186517033770986 0 0 0
780 2 1.957330888361072 6.773525629733573 19.363258645408433 0 0 0
784 1 5.651111498549698 7.546765159749834 18.974854984957265 0 0 0
474 2 10.086810244790412 7.700501823169705 10.740454273418193 0 0 0
786 2 6.565914027458651 7.676305189318657 18.61427754875263 0 0 0
791 2 5.481507745671435 8.393429321883493 13.638524524693002 0 0 0
746 2 15.373716956122744 4.510696507003654 20.24385070336752 0 0 0
814 1 8.333420369685674 7.5722235469865335 18.5713634903995 0 0 0
815 2 8.457046113828678 8.311896679090967 19.251282129730818 0 0 0
816 2 8.563684644512982 6.711161194304332 19.027449117624453 0 0 0
823 1 7.024480195801283 8.860943766361826 16.043861383945362 0 0 0
824 2 6.941488990686526 7.88317232059614 15.914864482335288 0 0 0
528 2 15.894222194882868 7.919390511440144 11.245962676621136 0 0 0
685 1 9.085102049416827 2.6139896941672474 13.956277892180987 0 0 0
758 2 3.3889680490938208 9.099454209200283 14.073819492126653 0 0 0
72 2 11.804230355658445 3.7495450929712346 20.563535496039517 0 0 0
707 2 9.196440818841115 0.9516329546599835 18.245865028991883 0 0 0
1 1 2.489279481157542 2.6792166818622656 20.609709447231076 0 0 -1
145 1 8.98148146102905 9.28907172182782 20.47177244468054 0 0 -1
822 2 12.200047554309016 8.049472160243566 19.78916431445344 0 0 0
879 2 4.651397672235347 0.254388709677976 15.701392752888069 0 0 0
827 2 10.45901459078598 9.172222989869812 14.146825072038501 0 0 0
825 2 6.230775960658259 9.265043247684035 15.67971357115849 0 0 0
826 1 11.455453960872372 9.214601118062786 14.172579138332942 0 0 0
403 1 18.64330875846563 4.945006890883528 12.668255044021945 0 0 0
670 1 2.0018126102066 1.0774500392481317 18.59858997807248 0 0 0
787 1 0.5284268462934258 9.235718315709422 15.768579282990684 0 0 0
713 2 12.053438577266615 1.646378920250456 19.74817694417253 0 0 0
534 2 18.744777599341255 6.532640668779274 12.35646866166442 0 0 0
793 1 8.973926749431142 9.42658480462436 14.171325892000267 0 0 0
790 1 5.286882794700029 9.19493013739493 14.177306835004481 0 0 0
677 2 5.548333719856741 1.5726793777879435 19.719947010422146 0 0 0
386 2 8.780736325219577 4.235554350655217 13.749001070507214 0 0 0
110 2 2.036516475239533 9.201627956664744 20.08182046274475 0 0 0
382 1 8.760243937260997 0.7240686664013558 11.754561167145772 0 0 0
492 2 8.897919245525392 8.177740685916003 12.907383278849661 0 0 0
336 2 0.3496921915878577 4.611436438585216 11.379219446224976 0 0 0
347 2 2.7977402895365024 1.3322143745877124 11.05946817030897 0 0 0
674 2 2.1234908134895822 4.566668484713721 20.30560237989058 0 0 0
510 2 17.86348790047408 8.04970026947693 10.686786916775185 0 0 0
726 2 17.539124186913906 1.0352467980338755 16.280033277563394 0 0 0
687 2 8.831248510504263 2.042544905986113 13.194734181882517 0 0 0
672 2 2.6896838316457283 1.014238506098197 17.921906363936444 0 0 0
712 1 12.291560331353718 0.9517984650966823 19.073203887377016 0 0 0
789 2 1.35699528206794 9.258655546210374 15.315908432854519 0 0 0
785 2 5.625675755416398 8.120536402553046 19.737987698169302 0 0 0
681 2 0.9793862562500532 1.71477216233658 16.073056069518643 0 0 0
680 2 19.549195217857303 2.7082775888653834 15.444393716008763 -1 0 0
668 2 0.09688124216554875 7.550985487947252 15.663211375463993 0 0 0
353 2 7.08175533868829 0.9557783725010777 11.92583400859612 0 0 0
455 2 2.5204025677679702 7.500076412679459 11.162817817860015 0 0 0
352 1 6.043378904315627 0.8803241592094885 11.947266816687613 0 0 0
679 1 0.6692933261168796 2.666479347687185 15.95883129078463 0 0 0
533 2 0.1646170379341271 7.521903207941851 11.904781704293258 0 0 0
858 2 0.028427684645489573 7.660888326463814 19.158868794031513 0 0 0
788 2 19.45214405261963 9.365806955562112 15.144734270723996 0 0 0
371 2 9.014485751515405 4.447443172884168 10.885858393349148 0 0 0
346 1 2.167513198696933 1.1606792976512057 11.750083135732813 0 0 0
39 2 8.938636170501534 2.056455952451036 19.970780033802903 0 0 0
678 2 6.703498520378928 1.164369980884969 18.703162796100663 0 0 0
412 1 17.003911795692613 4.233734593406722 10.808960216604442 0 0 0
424 1 19.129364450470444 1.218205668281811 12.475996056469366 0 0 0
750 2 18.51226307129544 1.3445358098114728 18.369087007890936 0 0 0
698 2 10.621098805869355 6.5698543522681545 15.79159653234616 0 0 0
689 2 11.403100396997774 1.1773663085863473 17.686533761235864 0 0 0
706 1 8.446959462834402 0.9069872571122835 18.851674047060403 0 0 0
437 2 3.9520507025313254 8.926798727956527 10.579653691255439 0 0 0
797 2 10.624533831290561 8.942631543184076 16.958546587680637 0 0 0
727 1 18.45387802823381 4.7477578175292106 19.512745724407846 0 0 0
859 1 13.666724979362824 8.47736678574013 15.547611205578958 0 0 0
860 2 12.78050628953375 8.642371871640872 15.140243099499331 0 0 0
179 2 12.106434648461809 10.058287543460262 20.422279092151282 0 0 0
690 2 10.923136976181771 0.8261961104472579 16.296180382303234 0 0 0
796 1 10.499155248781529 7.985434508951198 17.081893151931535 0 0 0
862 1 18.331074155043744 9.245257725971854 14.036137378517203 0 0 0
388 1 12.67756315864679 0.7963076662668813 12.108968834380695 0 0 0
390 2 12.165972373217814 0.9250651298265867 11.288808550561471 0 0 0
748 1 19.10257890454837 1.0920865627573237 19.207166545535678 0 0 0
745 1 15.24476304078965 5.4797347342769225 20.16876140584491 0 0 0
389 2 13.64639562734063 0.9763558747726595 11.873057729292178 0 0 0
711 2 8.759348084761916 4.43745075808718 20.191726195378493 0 0 -1
425 2 18.559833545202935 1.423777710551712 11.73039514734357 0 0 0
404 2 18.715298871624032 4.392585243010545 13.463930483651131 0 0 0
688 1 10.803297832911612 1.5167433798126186 17.007687721456463 0 0 0
753 2 13.754654295970239 1.128286267766976 15.663818474675276 0 0 0
832 1 17.282251686653574 8.073340926351827 17.190546978726754 0 0 0
367 1 12.398251344459624 4.789992523158006 12.374472430565916 0 0 0
368 2 12.440166815414974 5.74230361880667 12.472407311208492 0 0 0
369 2 12.149298276298458 4.495119197035651 13.278092429187517 0 0 0
850 1 15.228690821672831 7.797868270998793 18.82765561051689 0 0 0
831 2 15.574456735218359 9.029772409487393 13.336087128265445 0 0 0
828 2 11.679312642869581 8.518734005159727 13.507581779930785 0 0 0
407 2 13.829128014714952 4.614172273641638 11.479799947877375 0 0 0
700 1 10.449358938459378 4.006828623236351 17.247417318842714 0 0 0
405 2 17.91452896785304 4.565123963822812 12.103715037322496 0 0 0
852 2 15.393229547438375 6.89435321548621 19.218562940299954 0 0 0
861 2 14.312074090122845 8.982312702206668 15.016880487985373 0 0 0
420 2 15.356327050774027 1.859344698756501 12.294319172214731 0 0 0
421 1 15.449395757015 5.6836891461729975 13.263906004807348 0 0 0
422 2 16.215810491463614 5.722273586324576 13.938143005965511 0 0 0
423 2 14.654620802121515 5.664358751810445 13.820029383016848 0 0 0
183 2 15.516199330783452 9.162150181041298 20.146016643483325 0 0 0
699 2 10.162454310494526 5.542249982042833 14.750597267981538 0 0 0
496 1 12.696173435579981 7.485587769971767 12.226503401810206 0 0 0
497 2 13.486872837992937 8.105707351564702 12.151373424698159 0 0 0
498 2 12.067396422191202 7.732253058779236 11.430352145617624 0 0 0
673 1 2.1524875148338074 5.516727777537837 20.5303293882278 0 0 0
526 1 15.388295563537813 7.953934785468027 12.088453317347904 0 0 0
527 2 15.509225828363157 7.095307082268176 12.484405082619169 0 0 0
749 2 0.3439126072709281 1.053815076205205 18.921342763711475 0 0 0
834 2 16.48556771399209 7.985147122978217 17.74508343455023 0 0 0
851 2 14.25178032879347 7.740190105730395 18.81605461044771 0 0 0
414 2 16.019191152943705 4.26605165639133 10.879918744116976 0 0 0
691 1 12.169687366369056 4.8418829898915305 19.217581948087915 0 0 0
693 2 11.457854204572616 4.418440093272839 18.66609280820708 0 0 0
697 1 10.93194038928655 6.011357483146418 15.068043195671795 0 0 0
702 2 10.579175913960388 3.129184994247925 16.78514984985115 0 0 0
863 2 18.60416389542831 8.52844441989802 13.509377485998789 0 0 0
728 2 19.244752267483015 4.706479168325004 18.868680197181327 -1 0 0
718 1 11.634633929121598 2.74735117663281 14.000563028082485 0 0 0
719 2 12.229288415012187 2.5411768229498306 14.742535717358058 0 0 0
720 2 11.997522250154674 2.195241044020324 13.29885697220499 0 0 0
721 1 15.610195984501571 2.893250916443333 13.789992917859879 0 0 0
722 2 15.404579538064922 3.736931989554484 13.423039711369894 0 0 0
723 2 14.952182061787056 2.5940249872867227 14.46008352454241 0 0 0
724 1 17.508254648381573 1.4637070428360657 17.154720835659496 0 0 0
725 2 17.323161001507007 2.454679807645847 17.163664257395716 0 0 0
729 2 17.775286304830498 4.430369408248944 18.831187170461874 0 0 0
730 1 14.118683052489596 4.0944243132428575 17.17888441114811 0 0 0
731 2 13.660376877093013 4.478378578878076 17.937808080291692 0 0 0
732 2 13.992420269782603 4.799628232801216 16.464272876726458 0 0 0
733 1 17.201623524537645 6.089052459652238 15.293016554378532 0 0 0
734 2 18.191489108022907 6.198708414563601 15.344611547761652 0 0 0
735 2 17.01040023220894 6.892020012186329 15.81110404916186 0 0 0
736 1 16.74972002838362 4.131261014538181 17.3931315590387 0 0 0