LAMMPS data file via write_data, version 8 Apr 2021, timestep = 0

768 atoms
2 atom types

-0.4530021135492425 30.396349057002766 xlo xhi
0 14.120652171428041 ylo yhi
0 13.50526139699906 zlo zhi
5.106385774509285 5.06530862210899 3.5515974953049465 xy xz yz

Masses

1 16
2 2

Atoms # atomic

161 2 15.927477581358982 3.4606381673557682 11.474474304082815 0 0 0
11 2 5.56030306891486 7.428778059912359 6.824707271694674 0 1 0
295 1 8.221863548093557 6.457476967692675 6.979411184696295 0 1 -1
297 2 7.266867130269239 6.417781403307937 6.920836867315469 0 1 -1
164 2 15.615021556400041 8.407345886954996 3.907935009021473 0 0 0
220 1 7.910056003225028 3.7992162962220677 5.396033077172836 0 -1 0
371 2 6.051427810643725 5.3103531360951655 8.069260270124651 0 1 1
175 1 4.631313536844137 11.688909548477001 1.309130277857078 0 -1 0
352 1 5.835709789504553 3.6796006655379117 3.8330465300174184 0 0 1
150 2 12.118535396979977 8.065817689612839 1.7602215392876364 0 0 1
298 1 9.110753122214293 4.573532986792249 8.663530340997465 0 1 0
101 2 8.251458278670626 8.259574851374644 9.654374294648566 0 0 0
732 2 22.946920956171766 15.318846663988035 9.888232197572535 0 0 0
148 1 11.85852102285815 8.960938955887244 2.006831674548714 0 0 1
242 2 7.056413628349223 8.084239659120824 0.2676740814440454 0 1 1
105 2 16.071148111886433 15.64265305667519 10.753779898197896 0 -1 -1
39 2 18.263794813376833 7.522126228653973 6.134941288781485 0 0 0
106 1 3.982454394657199 6.085315047363691 0.042599772130306586 0 1 0
162 2 17.357910908203735 3.702267243248551 11.629076086129663 0 0 0
176 2 4.241533711150484 11.288960984001424 0.49109939147836856 0 -1 0
374 2 4.466548511346681 9.573303389161637 3.669549490740264 0 1 0
3 2 6.63663577906222 8.633800919559768 4.493652306791235 0 0 -1
149 2 10.858463997139586 8.91495942128777 2.083488163025222 0 0 1
50 2 12.185025951564693 6.289430513688594 0.12549685531070504 0 0 -1
127 1 7.832396515318425 14.488645766265646 2.6167968061483977 0 0 -1
282 2 19.596941937493384 7.448585349504252 8.346358599138204 0 0 0
507 2 17.138036821433147 3.384095383691243 4.2563697031728855 0 0 0
218 2 9.135014020423922 6.721773077271582 11.267753821149322 0 0 -1
351 2 12.932897894665984 4.167744721980327 2.5639464084969306 0 0 0
58 1 10.04096682963173 16.310799377877586 8.329725295053203 0 0 0
281 2 19.94204937991248 7.882374062778686 9.775755746710187 0 0 0
170 2 4.650243477192508 4.498105927767898 4.914924621129462 0 -1 0
353 2 6.709799343400574 3.56784287636148 4.293190284448575 0 0 1
219 2 7.909984254479252 5.836240557074061 11.205768460828606 0 0 -1
61 1 8.361920610853122 2.8625915984846846 2.383378522412873 0 0 0
315 2 7.376652373170924 6.217630265733104 2.818081211947451 0 0 0
92 2 4.294575451527515 6.315862409809035 2.795282671135949 0 0 0
324 2 7.550858631321306 12.323009473073547 2.255145280185045 0 0 -1
65 2 14.23425341141846 5.816320000670945 9.449942065473383 0 0 0
233 2 14.994264510469291 3.941943769354011 8.588700382502735 0 0 0
217 1 8.843431936832554 5.85338535153032 11.026897710563532 0 0 -1
257 2 16.532825753832388 6.618480061909695 7.034732218194464 0 0 0
38 2 17.836742297573878 8.709212385511698 5.38182518715637 0 0 0
94 1 14.001010994604556 7.572429067433421 4.362676057279294 0 0 0
180 2 6.491956831858306 12.116735608734174 7.7949430442999885 0 -1 1
128 2 2.81760924719809 0.43949358697741164 1.6705787051126144 0 1 -1
372 2 5.979674608709879 3.8119266998749355 8.595087644228018 0 1 1
274 1 3.9654090516621796 1.8215035742926766 4.607949957366984 0 0 1
140 2 7.04016585707047 10.55389557931105 6.59227170857816 0 -1 1
100 1 7.6599713566785645 8.33256617342335 8.888032644267385 0 0 0
63 2 8.58066690738548 2.7758302260723866 1.4622088254414491 0 0 0
129 2 6.870423545075325 14.395107959886587 2.762739845203439 0 0 -1
222 2 8.722868426438957 3.560373001562577 4.877497510930977 0 -1 0
64 1 15.140126519553224 5.543248419625847 9.366021602747137 0 0 0
111 2 9.080854449522187 1.7963983838609783 3.3435036577342494 0 0 1
13 1 14.430043024553587 5.225132399334732 3.18715788939916 0 0 0
62 2 8.877708000005153 3.6498786875633864 2.629549834366941 0 0 0
332 2 11.33159265174868 3.7407316653535543 0.781747212085668 0 0 0
275 2 3.6333236387431684 1.193885573361592 3.940070203891898 0 0 1
250 1 14.106153033895874 16.24234024084229 11.019610104725578 0 0 0
368 2 7.3816231259249605 3.6146795664953806 13.271331792688056 0 1 -1
102 2 8.079632058849882 7.817786698809026 8.167888940452325 0 0 0
349 1 12.222434993317894 3.5057687753070135 2.471406200938081 0 0 0
81 2 5.735699934339398 3.2070341071503243 0.5287139959048497 0 0 -1
85 1 12.615095756217267 6.365664353753294 9.291750109183512 0 -1 0
302 2 12.099736341629923 4.595925828721781 10.215478516234771 0 0 -1
301 1 12.261296472327835 4.045662847967861 10.96493702299838 0 0 -1
103 1 16.569113005006702 15.07574016226571 10.139975530108632 0 -1 -1
6 2 11.018748339299103 3.8077239246086325 5.314181052573007 0 -1 0
303 2 11.552605989481782 4.317503999819995 11.573344000748616 0 0 -1
305 2 14.38849320402376 6.280219406836273 7.067782080593426 0 0 0
239 2 18.046582675270766 9.132451708986917 8.204488801295891 0 0 0
293 2 9.708062943349477 13.376805372820328 12.591095475002136 0 0 1
333 2 15.36237870740957 6.812443688412471 13.313633721862464 0 0 -1
346 1 5.8015193471966695 3.1634588909704946 11.611660085676426 0 1 0
110 2 14.900855756942747 14.572551330411631 2.9827716052755533 0 -1 1
331 1 10.685215638565063 4.058600543443119 0.16340753576307912 0 0 0
9 2 10.892310036577086 4.373000407078529 13.481517283135107 0 0 -1
4 1 10.526490265969738 3.9646629041691397 4.4741151119873495 0 -1 0
8 2 9.659159590695191 5.207873478883372 12.93134414104686 0 0 -1
5 2 10.573868644056851 4.917807792163306 4.335455403472278 0 -1 0
7 1 10.640733249163308 5.247921179511613 13.061290988297838 0 0 -1
377 2 16.91599613163189 8.831431322737508 11.61822255272474 0 0 0
112 1 14.035609216918575 5.5992244892494005 13.274685652949094 0 0 0
304 1 15.060575218845486 6.950884798983997 6.783807673145097 0 0 0
367 1 7.970214366424457 4.347782035930281 13.41068022964422 0 1 -1
350 2 11.620506162744022 3.808171201685157 3.175838405964856 0 0 0
113 2 9.190101330982785 1.1583788478026036 0.052277299191507684 0 0 1
376 1 16.831049405421997 9.758158369835654 11.902286696324296 0 0 0
114 2 13.335108336986304 5.52331761760428 12.531773489487614 0 0 0
66 2 15.347665561776786 5.255206633659939 10.26961425474468 0 0 0
14 2 15.105088996727225 4.989303400895935 3.874455437164379 0 0 0
296 2 8.45238738482051 5.782343085694105 7.601245080142303 0 1 -1
369 2 7.380111297731859 5.119693823287278 13.455414855023541 0 1 -1
280 1 19.28365847987956 8.028564894295215 9.080040589103326 0 0 0
109 1 9.61109069196821 1.034246400057856 3.7413427805796173 0 0 1
87 2 12.353918984752225 7.088891436232563 9.8911192937621 0 -1 0
184 1 18.734257206204184 6.485556316876048 12.283267662558677 0 0 0
277 1 16.59382966553196 6.624641788811469 2.0393003375068974 0 0 0
93 2 5.598251535820053 5.453518844202923 2.8545951135134398 0 0 0
15 2 13.943066090402155 5.9449703439453785 3.6609483591968885 0 0 0
299 2 9.285305878797192 5.140190468929636 9.461839758473934 0 1 0
107 2 4.700186531592206 6.071401874388221 0.737836384150846 0 1 0
160 1 16.636846203121912 4.046857567645783 11.12100574334043 0 0 0
17 2 16.350752978022363 6.945477879272884 9.952280022770147 0 0 0
37 1 18.65410661422491 8.270858993118592 5.676083680530156 0 0 0
18 2 17.861065337537642 7.392342934740802 9.959027267004506 0 0 0
231 2 12.983497602346775 1.7601763962145387 0.30059871482913214 0 0 0
104 2 17.128267532112574 14.506252136667085 10.709182636809052 0 -1 -1
205 1 15.404573436352964 2.5318923694703814 2.2648292503317315 0 0 0
210 2 17.45180023206807 4.092476482713081 9.406859962207395 0 0 0
186 2 17.98553869900942 6.568019584637443 11.610385287762627 0 0 0
232 1 15.217738934039971 3.198435523570801 8.0017547671716 0 0 0
354 2 5.315576000768004 2.883482174089679 4.002408284595811 0 0 1
723 2 17.924851427346884 6.776289133863068 3.2142581326043866 0 0 0
183 2 16.530573653448986 5.084927000284819 5.941736754830111 0 0 0
40 1 20.94416701355395 10.307250952058398 12.571035372321195 0 0 0
207 2 15.13048330198913 3.273953725092886 1.707500333138816 0 0 0
208 1 18.026360952534585 4.360983506580768 8.66719392770663 0 0 0
279 2 16.240037445153494 7.470279730944143 1.7210343731478337 0 0 0
254 2 20.123505372588742 9.107283921905998 13.48399793206947 0 0 -1
181 1 16.08796575636506 4.411472653894168 5.406129542838447 0 0 0
182 2 15.719256717951634 3.8101478633154886 6.058012151575328 0 0 0
256 1 17.473318427522305 6.365632782444979 6.914856039448632 0 0 0
255 2 19.32441005542254 7.890275850845519 13.090823235336194 0 0 -1
253 1 14.524088191592252 4.797429698872519 0.4297242435112284 0 0 0
157 1 14.286688919743904 2.592505632713933 4.553535451152645 0 0 0
185 2 19.52387404431478 6.080917981279487 11.867275255709826 0 0 0
278 2 15.705761839110146 6.216822974875616 2.292116068084936 0 0 0
159 2 14.596355193710453 2.5287467938753734 3.6583283383258935 0 0 0
16 1 17.043972392422013 7.395491065482919 10.451345734653408 0 0 0
258 2 17.67537750743599 5.85733304310448 7.747100466358185 0 0 0
370 1 6.176209437409881 4.722811502373367 8.846735637513882 0 1 1
80 2 6.113455674285554 3.6748898664699694 2.0516585171003223 0 0 -1
306 2 14.887719777246868 7.736852920130472 7.370732030465815 0 0 0
79 1 5.951831205906972 3.9597697523922246 1.1401891064077474 0 0 -1
246 2 11.034840513359221 7.549614655881843 4.160160788916218 0 0 0
108 2 3.333020518016284 5.48528701148582 0.5215334136298225 0 1 0
300 2 8.202314392219769 4.215052955806425 8.879961858389839 0 1 0
221 2 7.67053101619539 3.1961746384075833 6.138276068790252 0 -1 0
348 2 5.271705849947014 3.306412238865336 12.387197100214271 0 1 0
251 2 9.13874807247104 3.079303215809761 11.098824549684563 0 1 0
139 1 7.533341696434286 10.71596711617813 7.452895717993145 0 -1 1
276 2 9.297243374738763 15.403838675931835 5.333565117870156 0 -1 1
313 1 8.158635920736764 5.8563888904771115 3.189623317755275 0 0 0
252 2 14.121747496298951 15.966093566066526 11.967414788007252 0 0 0
91 1 5.2882742308771435 6.3229453442382075 2.568369336154159 0 0 0
195 2 13.74718596605796 4.538753887280113 5.592771999790099 0 0 0
229 1 12.605735137085906 1.1314602368373268 0.9787898086070473 0 0 0
194 2 12.444921676997065 4.542208010968805 6.550233543256846 0 0 0
193 1 13.091948653776917 5.141777927512856 6.074402353322198 0 0 0
141 2 7.379895633373945 9.87647912129843 7.914690805665938 0 -1 1
234 2 14.333003464838844 2.894184906220406 7.707263426245561 0 0 0
96 2 14.319645719872538 7.33776295159632 5.264099002281066 0 0 0
34 1 11.24677785502711 13.437604741639344 0.5941040110248138 0 0 1
380 2 16.19392316135553 15.249455961893034 4.548070743275251 0 0 0
158 2 13.47357159861456 2.1586521757912305 4.512273563116134 0 0 0
294 2 8.136391903264458 13.086184565702673 12.791351545585742 0 0 1
35 2 12.136550799090566 12.980335489693296 0.4395161957395345 0 0 1
267 2 11.684629237130734 2.880852079930459 7.3300051183489625 0 0 0
266 2 10.390244202115435 3.8838522329724707 7.502667016221991 0 0 0
459 2 15.26890001145741 1.1501192037035401 0.9686138044576857 0 0 0
86 2 11.983962799017304 6.426977291968266 8.579603343648577 0 -1 0
226 1 12.564396358906839 14.221669384846551 5.228657327415743 0 0 1
77 2 9.187530793559862 10.780696932278483 5.2485661033587645 0 0 0
227 2 12.540545096109238 14.855864016926919 6.019357540549008 0 0 1
82 1 12.928394786971301 10.726770458664186 9.496967024316007 0 -1 -1
166 1 18.903747405229097 11.268225766320922 11.191565150441052 0 0 0
228 2 13.324116196640434 14.41729690752311 4.72652193439067 0 0 1
330 2 12.216497043282184 9.978155313988932 3.073905187964742 0 0 1
59 2 9.57423017784125 16.126198216223752 9.155005371889766 0 0 0
230 2 12.448198923158872 1.7602319672418711 1.7279364092616527 0 0 0
120 2 18.120764942342642 14.198633836490528 12.963070544063987 0 0 0
173 2 6.01265587402235 8.39139138725442 9.94480769411672 0 -1 1
339 2 2.231777859046361 2.3949355587683723 6.481186067877248 0 0 0
270 2 10.750038558438808 11.77053506043504 12.009773103652769 0 0 -1
118 1 17.703836756108803 13.50393260504167 12.417381515201145 0 0 0
322 1 7.509682598245196 11.464714432053945 1.8539697001510251 0 0 -1
238 1 17.325279370232362 9.758140786423716 7.974729661790512 0 0 0
425 2 2.2289727799269046 3.97220018117158 1.8206025885304804 1 0 1
196 1 13.345728017573146 12.14600268124665 0.1844190770551793 0 -1 0
83 2 12.226063911797933 10.849224858035459 8.822377503794561 0 -1 -1
290 2 11.346792478562577 6.143360969946222 2.314834693444524 0 0 0
334 1 14.158792594344785 13.943225026757585 9.139271839267222 0 0 0
285 2 18.638263838889774 14.130424216327045 1.611249065372179 0 0 0
467 2 20.41225364021516 10.263145907422203 7.4472006104774895 0 0 0
147 2 12.805297215993084 14.942373641007189 10.692910987335509 0 -1 1
364 1 10.418491211621832 10.16918097135942 7.480388203719804 0 0 1
320 2 9.767741192417857 12.155587547400131 9.814194378127707 0 0 0
344 2 11.717920505048326 11.385584133134216 6.582858980732325 0 0 0
169 1 3.988059992070533 5.035323894415705 5.382892800781852 0 -1 0
225 2 9.410981678808968 13.42608905143306 7.3757228958951995 0 0 0
31 1 12.127921787479917 8.519907953735618 10.908456047388578 0 0 1
284 2 19.726413128498933 12.910982559282198 1.343135471920367 0 0 0
56 2 9.285303945118923 8.308912915045553 0.2068637817031139 0 0 0
168 2 18.53661127908249 12.143111583148471 11.402974270856403 0 0 0
245 2 11.520736701403067 8.932052068404317 4.63908774412015 0 0 0
145 1 11.86013123369803 14.621997986823173 10.719458414008033 0 -1 1
57 2 15.138656360667003 12.195674827000584 12.407293836007229 0 0 -1
328 1 12.571228025937781 10.535291679407068 3.8191936721055844 0 0 1
199 1 9.367411611816134 8.494789068679786 11.230096182136043 0 0 1
28 1 11.0339142985227 13.10788635504469 3.344133330801026 0 0 1
336 2 14.545273796934145 13.423676914773768 8.400135555289285 0 0 0
366 2 9.551785053611296 10.507160133825195 7.686255018582594 0 0 1
287 2 21.376767687080704 16.054165003317223 8.293481728866563 0 0 0
224 2 7.899107110029739 13.581782342946239 6.883109455994881 0 0 0
55 1 15.054582889408062 12.366820808833848 13.385939161986038 0 0 -1
216 2 20.27045764213488 12.250917985369705 8.532123899255819 0 0 0
329 2 12.086942631995846 11.335005410867279 3.698439624933199 0 0 1
33 2 12.518054184586278 8.440731294841347 11.771521006081041 0 0 1
312 2 17.62985068537391 15.4525349780133 8.742412799360707 0 0 0
335 2 14.882408828729137 14.229721664637136 9.69425493670007 0 0 0
97 1 15.82362746581883 13.173086918454786 6.906229157310878 0 -2 0
268 1 11.343872953175703 12.472334832125851 12.317054398200385 0 0 -1
98 2 16.209259252917448 13.932938575092146 6.441556568531017 0 -2 0
310 1 17.859234335309317 15.868332096049327 7.885212781074143 0 0 0
273 2 11.492530620013406 15.86280116617525 7.605739343649358 0 -1 0
197 2 18.84646927597463 16.139078332178737 12.908660946141092 0 -1 -1
241 1 7.715386790229131 7.690449884739983 0.9381845096594121 0 1 1
345 2 12.385388095955195 12.677107773553654 6.242387469599931 0 0 0
319 1 9.151961803158022 11.704941629140906 10.423637793403053 0 0 0
272 2 12.889376490987457 15.337223736100352 8.0297927861935 0 -1 0
264 2 19.005530651080505 12.585865076509798 6.493812917936809 0 0 0
142 1 15.376826871974284 11.83116891853381 10.8775452180682 0 0 0
263 2 19.93953483444632 13.93536918166478 6.722411181186173 0 0 0
121 1 8.133054359485508 8.584456223949934 5.405926163436021 0 0 -1
269 2 11.670129985576374 13.04348322097593 11.563535058675832 0 0 -1
171 2 3.3629871873924526 5.459229367931556 4.677763838160651 0 -1 0
215 2 20.003762839762885 11.017339159527674 9.528042940164491 0 0 0
271 1 12.425041611068536 15.7250789858829 7.225932184735697 0 -1 0
262 1 19.428181531770246 13.182263097375975 7.149983753205097 0 0 0
41 2 21.566338804680164 10.980223371003849 12.751726923122284 0 0 0
192 2 21.620686260956205 14.390014368215828 12.746027715598212 0 0 0
214 1 20.62618598673206 11.438689569281868 8.86494157318961 0 0 0
240 2 17.5387802367012 10.05931969567306 7.047658125868657 0 0 0
321 2 9.050996941194999 10.8400847710265 10.113303027001471 0 0 0
343 1 12.446968012681229 11.999795891617365 6.914594523008188 0 0 0
153 2 8.409092645980873 8.526208492101055 2.315161819046962 0 -1 0
12 2 4.876937985476246 6.140911531296725 6.177643979830238 0 1 0
291 2 9.769568789414812 6.214425187149957 2.7656317885728208 0 0 0
292 1 8.844585370678464 13.752183918353749 12.873174144085798 0 0 1
51 2 13.270336723499799 5.799062849819661 1.1128100110033388 0 0 -1
200 2 9.303194749907862 8.921409582691101 12.101665302941267 0 0 1
88 1 14.625246653686347 9.379112331150676 8.009220529221398 0 0 0
198 2 13.902782211867766 12.121953899938072 1.0135338587369627 0 -1 0
84 2 13.51405420444038 10.174214882500463 8.951304682134895 0 -1 -1
152 2 8.454548033935858 9.981593397963907 2.6083831658326666 0 -1 0
311 2 17.97227328878029 15.177338879535352 7.240720080232877 0 0 0
359 2 14.78673959916207 14.073538761189223 13.459495444512166 0 0 0
265 1 11.217917444188162 3.6825501841611676 7.021309242091495 0 0 0
288 2 22.1244964850589 14.744321611858997 7.947760653588238 0 0 0
72 2 17.510648749762876 11.504603515420458 8.561870052577007 0 0 0
42 2 20.009587687072507 10.678733215397338 12.39157296359087 0 0 0
177 2 5.537071532210408 11.587879323414878 1.1015994218312004 0 -1 0
190 1 21.092814575804468 13.678558287002051 12.317774726919533 0 0 0
223 1 8.861296849427806 13.571242845026019 6.591183829320105 0 0 0
191 2 21.658911376201132 13.024584489168177 11.891666641292426 0 0 0
382 1 19.38784665665113 16.667809096725282 11.50356367753837 0 0 0
19 1 17.119457231756904 12.506244886914143 3.7399425963903066 0 0 0
20 2 17.748124447579293 12.708712623486507 2.958796901225119 0 0 0
21 2 16.247058041539944 12.218002310460479 3.3674023815481107 0 0 0
379 1 16.93926533896787 14.900509581267892 5.1259138566272275 0 0 0
43 1 20.940946063063063 14.942977107384056 5.851667680046014 0 0 0
381 2 17.22041059061351 14.18431156545071 4.491780266349524 0 0 0
67 1 14.689457362807643 11.50377050765628 2.3752786179749235 0 0 0
68 2 14.037522803135413 11.072499582527248 3.0023521670650934 0 0 0
69 2 15.049207094592992 10.74821066737092 1.846051207633882 0 0 0
119 2 17.0658338850928 13.155963331396865 13.072080238572827 0 0 0
146 2 11.436085759735255 15.407851374809052 11.055296645819958 0 -1 1
360 2 10.05238587357078 12.006286301422636 0.2690188813690943 0 0 1
115 1 15.221807097048874 10.878562258809609 5.815975249691872 0 0 0
116 2 14.275226654963369 11.092493500385375 5.600316842272429 0 0 0
365 2 10.36406998797284 9.217114486014692 7.638455279217532 0 0 1
136 1 8.048781712989195 5.167989980726947 0.08297156462757217 0 0 1
144 2 14.42300468630792 11.841325643568084 10.503117556026172 0 0 0
383 2 13.478026005321418 3.0172738213649968 11.169370802635273 0 1 0
163 1 16.30671812948505 9.051019724286823 4.251941123235908 0 0 0
286 1 21.672889485129513 15.227977003375901 8.696169787600258 0 0 0
165 2 15.864415468860894 9.739468572308521 4.810547089517564 0 0 0
187 1 18.341640080906334 11.159626183104155 5.759650699498416 0 0 0
188 2 19.12470529447652 10.634939855762319 5.314962487071219 0 0 0
189 2 17.817326448377553 11.572748299808142 5.051531381698034 0 0 0
30 2 11.51939012341429 13.748021690724562 3.9932010675128318 0 0 1
211 1 17.88813808278467 10.062744988445099 2.201191058116338 0 0 0
213 2 17.32285627079241 9.783806517229266 2.9984049742116663 0 0 0
235 1 15.211720286484379 9.161925311566145 0.9945884729778663 0 0 0
236 2 15.459112708002907 9.385871383514813 0.06577822707427473 0 0 0
78 2 9.05600876427189 12.297279020558229 5.567816979699784 0 0 0
260 2 17.813492680756713 12.331265393180585 0.10859495292874245 0 0 0
25 1 6.391466985802889 6.556170996699545 12.538325644923551 0 0 -1
259 1 17.010385489115798 11.922765646574998 0.4371209611376074 0 0 0
117 2 15.539840470285503 11.75826893294919 6.196415284967735 0 0 0
261 2 17.252506209405066 11.25871307719195 1.1093276898236635 0 0 0
283 1 19.212546122638102 13.452366935250598 2.0312680340006795 0 0 0
347 2 5.150611021618643 3.4079947164144038 10.945524430163378 0 1 0
206 2 16.261540432872927 2.6958149986824824 2.670193749346237 0 0 0
307 1 15.395417658713242 14.07143114253644 1.1633237950920798 0 0 0
89 2 14.426890889853789 9.852038668306346 7.181272277912767 0 0 0
309 2 15.761512908373458 13.130810428113545 0.983521319012025 0 0 0
29 2 10.311372266306414 12.69595076531892 3.7784770008046853 0 0 1
49 1 12.53761052122684 6.443450858708862 1.0427464277577385 0 0 -1
60 2 4.228269345170038 2.3737690767005053 7.655900426331151 0 1 0
326 2 11.254321016975386 13.646015700508297 9.2438724248779 0 0 -1
358 1 9.291083744442957 11.399238615960575 0.029673613570405682 0 0 1
289 1 10.686949801621743 6.255460765210031 3.006861579330968 0 0 0
22 1 19.51024931319708 14.191916545606723 9.939678206138407 0 0 0
23 2 20.25149349752632 14.363824715340725 9.294324928277637 0 0 0
24 2 19.99424697145003 13.918388577831683 10.760383789284568 0 0 0
143 2 15.983849949403307 11.962407185836724 10.162991577212146 0 0 0
46 1 23.713052855985634 16.885033739531885 12.509754927882783 0 0 0
70 1 17.36963343458879 12.39157931481176 8.907948443444107 0 0 0
71 2 18.183413299819538 12.890480490420186 9.021489081847143 0 0 0
325 1 10.733317210530496 12.997078709613355 8.734214683828725 0 0 -1
130 1 10.787947091013153 7.319052837344838 7.515114458133582 0 0 1
151 1 8.97653426122055 9.170361030838109 2.81685018061559 0 -1 0
201 2 10.322191358954608 8.29093660409625 11.102347755169353 0 0 1
323 2 8.18576338880527 11.438351859184253 1.1284805704250642 0 0 -1
131 2 11.092057687321928 7.635908640251271 6.6320538633835575 0 0 1
76 1 9.08533657883951 11.702142820323369 4.794263923817175 0 0 0
327 2 11.333274443966872 12.752323601622974 7.929979735285123 0 0 -1
32 2 12.403100364811442 9.343781222104122 10.506854509631625 0 0 1
468 2 19.82486111605346 9.07349680647505 6.525840391382865 0 0 0
243 2 7.818338510860793 6.753771711991169 0.6183197047636385 0 1 1
26 2 6.629592694225046 7.032621918762492 13.317867908918767 0 0 -1
99 2 16.577270787327578 12.923153215682689 7.454936230227298 0 -2 0
384 2 19.50334809396858 15.818531724228292 11.005418898535405 0 0 0
10 1 5.513576520636695 6.457950503840574 6.829018692138057 0 1 0
122 2 8.638831052664882 8.60818360935456 4.569536264717018 0 0 -1
244 1 11.255217435898823 8.070044538503076 4.912660416194388 0 0 0
314 2 7.9935216520178525 5.594795273252031 4.159062470837764 0 0 0
337 1 2.8268599592701875 3.0041406719701054 6.989783226601981 0 0 0
249 2 7.187793105264394 11.546167442845384 4.517309272138021 0 0 0
123 2 8.429633062690774 7.755363501416016 5.888072664952167 0 0 -1
90 2 15.604758913920211 9.490809199909323 8.118001694635376 0 0 0
132 2 9.996086833326412 6.757535268858958 7.293992723115431 0 0 1
308 2 11.050666253127503 0.4644921411242365 0.8365185033363376 0 1 0
137 2 7.3951011034621885 4.6605824216884715 0.628677018507165 0 0 1
247 1 6.315465744416214 11.475071764366149 4.8877943822505845 0 0 0
378 2 16.072512156605764 10.136695518683293 11.422151804206958 0 0 0
36 2 11.09299896275858 13.479322833744911 1.5356911730448992 0 0 1
1 1 5.692336927301216 8.396692484413459 4.2268013778876705 0 0 -1
44 2 15.25460633227687 1.509115939005918 5.494597774248714 0 1 0
45 2 21.19734539930197 14.494636590921992 5.049070985604539 0 0 0
138 2 8.90084096673744 4.763631940359303 0.3267686284153038 0 0 1
95 2 13.061324892069303 7.8329033821220815 4.543734005979504 0 0 0
237 2 14.294111335165034 8.786239671459334 1.0326207211627243 0 0 0
167 2 18.07414427373561 10.714515644152947 11.272374586134319 0 0 0
209 2 18.012797698346297 3.623490079209236 7.987296326552953 0 0 0
317 2 2.3842306066790067 2.8601762349422506 3.9973596063884798 0 0 0
248 2 6.034594176087715 10.673661436728004 4.492615637665788 0 0 0
27 2 5.924686340896208 7.181193671797248 11.981977203187105 0 0 -1
2 2 5.767448634303108 7.747166958602792 3.4518253127397447 0 0 -1
212 2 18.706456243795422 10.23095675303639 2.6484416399600037 0 0 0
465 2 18.022109168091095 8.978739498726263 0.8156238928065961 0 0 0
155 2 7.5427538941690475 12.482871529918096 10.701265374320023 0 0 0
48 2 19.364179591107135 3.370079921622828 12.73454937113565 0 1 0
125 2 2.8914818084515326 7.62487288410047 0.24443543019350167 0 -1 1
134 2 8.602868119917957 15.01619750272265 11.235838641819884 0 -1 0
338 2 3.349539923173685 3.513731928189161 6.3594854831067655 0 0 0
133 1 8.295452138877666 15.747740645363306 10.726754874715269 0 -1 0
363 2 5.755523504915747 12.864839985559687 4.232826218247496 0 0 -1
424 1 2.1033079797322567 4.415006478273875 0.9997464463985348 1 0 1
47 2 23.838053081250184 16.44116660895841 11.577869771876987 0 0 0
725 2 21.365259805428785 9.093908007912066 11.289516712345428 0 0 0
342 2 5.1839318450562395 5.58339111528228 10.194741490019439 0 0 0
74 2 5.394839674911847 5.174634421033489 13.437695040522643 0 0 -1
385 1 22.05521513947291 5.261976573437293 3.597156071864087 0 0 0
386 2 21.886573104828127 6.157079258047231 3.8572494772664023 0 0 0
387 2 21.1842955379538 4.9433939591204075 3.3267118833552813 0 0 0
409 1 25.83954936735525 8.17186608876929 5.756390249872673 0 0 0
483 2 18.7951436663745 4.162665274576744 5.736408534477495 0 0 0
647 2 35.088150732258164 14.194250412611362 6.075976383802585 0 0 0
600 2 36.4314842158106 11.61669911015993 9.704760877005329 0 0 0
433 1 19.59013988065414 3.8002863828825886 2.430638921201606 0 0 0
434 2 19.9525416205355 2.962299488171841 2.048421052080322 0 0 0
435 2 19.18570005961897 4.2839064148266965 1.6955657007700389 0 0 0
602 2 20.55407575425922 0.7116255787863789 1.6546773579127576 0 0 0
124 1 32.969470028881844 8.21481284872516 0.05212758705230238 -1 -1 1
677 2 21.995475713433077 8.762063289148175 7.740252027293029 0 0 0
481 1 19.594342109396994 4.655862803855724 5.363563428123314 0 0 0
482 2 19.097293272681725 5.095932394958062 4.564166210758862 0 0 0
650 2 24.849392596902792 6.339352408684837 2.7356429405070766 0 0 0
52 1 36.12772742107718 10.009698536580022 12.583980116019314 -1 2 0
506 2 18.297122939453214 3.158944699387683 3.2296577558582826 0 0 0
529 1 21.2046401070264 2.3956085474373343 4.609063073919839 0 0 0
530 2 20.722959986399758 3.188765350797261 4.883159968333393 0 0 0
531 2 21.741378060733503 2.602773741700418 3.844841747998093 0 0 0
553 1 23.564289688982765 4.545249744917082 5.787662057198625 0 0 0
554 2 23.050768266778544 4.918879344046464 5.076191057772212 0 0 0
745 1 21.559376133678153 7.879321520973775 4.511918844045243 0 0 0
577 1 22.851330771745317 2.686085636077586 2.3298008505710217 0 0 0
579 2 22.64198571122084 3.4741400302041563 1.8468918308844713 0 0 0
601 1 19.921009317917967 1.375219614788943 1.2736342353244905 0 0 0
666 2 34.78458819391223 8.296718027772139 9.497261045927175 0 0 0
603 2 20.333008361900163 1.5288138381660967 0.38906160540578294 0 0 0
410 2 26.56077436220172 8.562107054227834 6.344282878920722 0 0 0
625 1 22.129278156610525 4.940454017843739 0.3861265966580084 0 0 0
627 2 21.447065277665068 5.549928035140193 0.7853907831886204 0 0 0
649 1 24.087719927670246 6.494211282431323 2.175984658139997 0 0 0
578 2 22.91340309217538 2.027882048576477 1.629007069033253 0 0 0
651 2 23.491926067108256 5.743199616139959 2.4403220224248505 0 0 0
673 1 20.273731296439543 6.80540700754081 1.2565666042923678 0 0 0
362 2 35.508400451002764 13.79532537951895 3.6405563318097496 -1 0 -1
675 2 20.018946409896962 6.55988315777016 2.1452937739782443 0 0 0
697 1 18.12087804636492 4.932997949265567 0.5237155645165076 0 0 0
593 2 32.41278155407627 4.93259837063407 9.498417524348893 0 0 0
457 1 15.457829115431785 0.7106555655617812 0.14685799754353876 0 0 0
746 2 21.254596517952002 7.756684826633042 5.445139690993578 0 0 0
203 2 33.662398607161215 7.225920521106288 4.1356731256217785 -1 1 0
626 2 27.744214950631893 9.082112254181887 13.352525051048017 0 0 -1
476 2 31.50515205735657 11.36601569811074 13.503374660900004 0 0 -1
411 2 25.284906285955994 7.674680735803942 6.417605403843962 0 0 0
678 2 22.214595814892977 8.404721133815935 9.208105422628055 0 0 0
388 1 24.641023889086323 6.98933253581222 10.137734236981023 0 0 0
389 2 24.463222910282703 7.8016705591221776 10.643791204739308 0 0 0
390 2 25.257066263427866 6.557992073599057 10.781495974921484 0 0 0
412 1 28.67947140456694 10.11188897293649 12.456032558032854 0 0 0
135 2 38.34888952298241 15.641011178074448 10.15220524139429 -1 -1 0
436 1 22.50168097847174 5.516945306853964 9.157975343811836 0 0 0
437 2 21.68069593051737 5.27889745790894 9.678234822492591 0 0 0
438 2 23.087157575265913 6.0865936479948655 9.715356985993003 0 0 0
692 2 26.08555723079332 0.5675426594675881 1.3726907268247919 0 1 0
654 2 27.036809017302918 8.408404482528153 9.336536843386131 0 0 0
748 1 24.18320839333409 9.501035762511446 11.59211074138446 0 0 0
485 2 22.41983919386206 6.9532819883221215 13.193881454115365 0 0 0
484 1 22.105978717372096 6.270536052014887 12.48968639527484 0 0 0
508 1 20.166896511821115 4.757096642248038 10.329030879851986 0 0 0
510 2 20.521924078359554 3.9167096883731576 10.654231025882346 0 0 0
558 2 26.514845137767285 6.773531657430024 12.570129447695377 0 0 0
532 1 23.76849682425803 4.136374996158382 11.340930074324751 0 0 0
533 2 23.399624964950924 4.932925520711244 11.7486002006649 0 0 0
357 2 34.67066198884485 9.423571469636357 6.177771674531401 -1 1 -1
556 1 26.22362865375029 6.003726030378246 12.077166438947966 0 0 0
557 2 27.034568629318674 5.653395157677377 11.664238754874603 0 0 0
580 1 25.45169460375109 4.48702025614053 9.014617156281918 0 0 0
581 2 24.91093436699234 4.453032900563782 9.823836711144928 0 0 0
582 2 25.110557695325213 5.260789690445376 8.495558655298737 0 0 0
630 2 24.159744593030815 5.8765732175322345 6.67202031117155 0 0 0
604 1 22.414302797545165 2.971998509469706 8.033084100359398 0 0 0
605 2 22.42497293918421 3.7447357327471718 8.683824834036487 0 0 0
694 1 32.89574076653018 15.846654713206462 8.064393740577794 0 0 0