LAMMPS data file via write_data, version 8 Apr 2021, timestep = 200000

6144 atoms
2 atom types

0.21919380025681 59.68924058037433 xlo xhi
0.12118383147792448 28.2192821685237 ylo yhi
0.15340017033845427 27.258044829660555 zlo zhi
10.034222983578939 10.128227805236383 7.245518075082596 xy xz yz

Masses

1 16
2 2

Atoms # atomic

1 1 7.5968219776493395 5.417320064942608 4.300174375794318 0 0 0
2 2 6.893846989425891 4.846697601828891 3.894642453186952 0 0 0
3 2 7.1152703188857265 6.270933459577532 4.62993518084031 0 0 0
4 1 10.214059120159442 6.924523387047798 10.875438068966723 0 0 0
5 2 10.747699159654985 6.577788789197665 11.6537509876036 0 0 0
6 2 10.029183737781324 7.826421947145517 11.136939866834728 0 0 0
7 1 9.919705758137031 12.185736615884327 4.142761161830177 0 0 0
8 2 10.517973944231061 11.82109051822101 4.847192084954245 0 0 0
9 2 9.741120123964384 13.042786551299093 4.514498843209111 0 0 0
10 1 12.680816198248104 14.218628910927286 10.917819880159803 0 0 0
11 2 13.515108908005573 14.333307051025692 10.47648561946445 0 0 0
12 2 12.063635674144452 13.667006721163405 10.393081592574926 0 0 0
13 1 14.878592223766873 5.238113109468393 4.127693354220367 0 0 0
14 2 15.433584506384195 4.744030436181488 4.731590807739356 0 0 0
15 2 14.6995026467456 6.132623412551456 4.507098063781099 0 0 0
16 1 17.422310021027354 7.297999428185998 10.807039752729818 0 0 0
17 2 17.77029257485979 7.006156288784829 11.693969048931855 0 0 0
18 2 18.198295735337375 7.5250146219105405 10.300590273030036 0 0 0
19 1 17.476062873285585 12.120304580706389 4.031899346925596 0 0 0
20 2 18.103191237872007 12.549498276413981 3.3566155216713436 0 0 0
21 2 18.036876476676078 11.76591028950535 4.751422816433502 0 0 0
22 1 20.181894343085972 13.836543996056411 10.717422498193432 0 0 0
23 2 21.072337837306932 14.164041935969399 10.328474263505257 0 0 0
24 2 19.703569568527122 14.679961798183355 10.866153326579258 0 0 0
25 1 11.581767558386616 8.285830461488812 6.4255613402632 0 0 0
26 2 10.784607284469512 8.785831115947223 6.346979988464815 0 0 0
27 2 11.307389935643041 7.420110129045855 6.912303221695691 0 0 0
28 1 14.207495875565344 10.18403087764158 13.349229037739002 0 0 0
29 2 14.480371820804276 9.648458314879452 12.531289446221095 0 0 0
30 2 13.38291139437097 10.668962502892601 13.042301425928432 0 0 0
31 1 13.946215825015907 15.179293381589654 6.504320678545791 0 0 0
32 2 14.23445812782544 14.686178424072734 5.690472262335015 0 0 0
34 1 16.834088431061023 17.096036532950077 13.154732386998106 0 0 0
113 2 15.612808806965175 6.951121101406312 13.522418475641297 0 0 0
37 1 19.099616730348586 7.982092505580554 6.360473171488951 0 0 0
38 2 18.374900688973234 8.59845487084969 6.152980355127568 0 0 0
39 2 18.636172662924285 7.419478493292896 7.038412855216466 0 0 0
40 1 21.660876440793245 10.077980041641455 13.34377395875136 0 0 0
1880 2 11.86521999300805 17.83701058780641 18.352764646646676 0 0 0
42 2 20.90891221969683 10.602119559221357 13.07505955255215 0 0 0
43 1 21.72137233980729 15.311734765931266 6.266805545693707 0 0 0
131 2 7.731297407359798 11.774718082174811 10.365038410128488 0 0 0
158 2 15.010478440433545 1.8386874255160939 5.764960700704341 0 0 0
591 2 31.47100396549932 2.678073315953053 3.0077757510521064 0 0 0
45 2 21.890522023486167 14.858723281674516 5.380791576441357 0 0 0
49 1 5.502697512494146 3.828745364698099 3.103277216020089 0 0 0
50 2 5.608008885309066 2.9253537453736054 2.6438786159668615 0 0 0
51 2 4.77364184607681 3.819143186097309 3.7759911872114627 0 0 0
52 1 7.750167150811858 5.696881459887894 9.928772348080733 0 0 0
53 2 7.3118051183547506 6.0949314243998005 9.125767327788726 0 0 0
54 2 8.422532805046334 6.2596435647272255 10.32503607792568 0 0 0
55 1 7.870549706760086 10.918566323707326 2.8148807333223083 0 0 0
56 2 8.223214870205833 10.159338234917 2.36941519671451 0 0 0
57 2 8.53131188644423 11.421718817520798 3.350898190495396 0 0 0
58 1 10.367145527392909 12.87397919657909 9.847047500904656 0 0 0
59 2 9.939997507012022 13.113485029801524 9.06493726712366 0 0 0
60 2 10.59931176650112 11.950531162084657 9.672532458035397 0 0 0
61 1 12.864298580752484 3.80823419307613 3.1730920304650434 0 0 0
62 2 13.649566564899256 4.288067641402844 3.5774100005143152 0 0 0
63 2 12.450084166653198 4.345686974680643 2.4362200378382615 0 0 0
64 1 15.20410426372608 5.6505764542805155 9.7273733637993 0 0 0
65 2 15.885692053586 5.933084744445124 10.321573019594217 0 0 0
66 2 15.484157572689108 4.890756494635431 9.194916371266679 0 0 0
67 1 15.193555560563938 10.91533655066854 3.135525338254393 0 0 0
68 2 15.950473647378203 11.441493085335953 3.4322660350806204 0 0 0
69 2 15.476773809989174 10.071835274378103 2.713874549502427 0 0 0
70 1 18.01875313895066 12.674430525840236 9.430392216037976 0 0 0
71 2 17.604306643999532 13.309692104352344 8.82621277211372 0 0 0
72 2 18.848318366162026 13.116198772178612 9.76160928168731 0 0 0
73 1 1.1469655405372885 1.043414241565806 0.5337081454780718 0 0 0
2199 2 37.751069280470226 9.70853217670097 17.086360960004814 0 0 0
79 1 3.8930341748855897 7.973494939893861 0.9334891912267613 0 0 0
666 2 35.28866614155809 7.959197816257107 10.320879055048204 0 0 0
81 2 4.477303831225459 7.2611189785355705 1.300683447060354 0 0 0
82 1 6.313141436270608 9.993208956002825 7.688704685173835 0 0 0
84 2 7.015236952369758 9.41089263525932 8.083490219796284 0 0 0
85 1 8.754686003703823 0.9344727136381358 0.774443976152358 0 0 0
87 2 8.362801808924647 1.6193887939877416 1.3227066403939536 0 0 0
88 1 11.337421770923342 2.628020960605252 7.303029740059351 0 0 0
90 2 11.559789626220894 3.392213813133621 6.7198495423894125 0 0 0
91 1 11.12539883288131 7.866916722808091 0.4931787114281294 0 0 0
93 2 11.909980653010596 7.314249231341054 0.805913525705235 0 0 0
94 1 13.916003958226522 9.750872068038333 7.602330151239303 0 0 0
95 2 14.590399246535334 9.119082562893853 7.982432995579875 0 0 0
96 2 13.188427615775476 9.19448625805243 7.27886031616791 0 0 0
97 1 5.412632064315938 4.533713851399614 6.06793097136016 0 0 0
98 2 5.789023990793843 5.124531088827873 6.786634266432249 0 0 0
99 2 4.807697185741659 3.984762403640293 6.498024431248496 0 0 0
100 1 7.906803295657455 6.329576501047925 12.928147731268972 0 0 0
101 2 7.868320313573074 6.989591630161699 12.264566949778652 0 0 0
102 2 8.592585491831944 5.7865811632818795 12.420293937059332 0 0 0
103 1 7.974707742932068 11.413524976445682 6.099679021251679 0 0 0
104 2 7.462371869392546 11.936860153290155 5.420869703444475 0 0 0
105 2 7.347294609258434 10.75030400563447 6.547203643773291 0 0 0
106 1 10.31430775086117 13.34248841243725 12.811991060532213 0 0 0
107 2 10.852854766053271 13.95752546677204 13.352512097926262 0 0 0
108 2 10.929157530163248 12.72639457111677 12.365115235220928 0 0 0
109 1 12.775398398817055 4.642631795026416 6.072861158875249 0 0 0
110 2 13.387841913666803 4.011430400422101 5.640193393858417 0 0 0
111 2 12.467412526747864 5.1926179453455 5.307967235767383 0 0 0
112 1 15.246119629008595 6.41850812288526 12.833375001365283 0 0 0
114 2 14.549681095360897 5.91039219077382 13.351956061519374 0 0 0
115 1 15.428049833614878 11.3130899661562 6.019823113346057 0 0 0
116 2 14.811859969839693 10.778053765815876 6.594445175343182 0 0 0
117 2 15.840224427002529 11.991879503249576 6.567155860866361 0 0 0
118 1 17.99275886341406 13.333995647318503 12.813245918978721 0 0 0
119 2 17.362460996844565 12.817788939139167 13.345890903099145 0 0 0
120 2 17.430241184091656 13.604485392724568 11.980895021773884 0 0 0
121 1 3.2164958426239205 2.754145384322269 4.398391904822799 0 0 0
123 2 3.7330378261368597 1.9668195833301128 4.705210662272315 0 0 0
124 1 5.7531864501463765 4.527542400702788 11.325974027977724 0 0 0
125 2 6.499915852220528 5.086794678655223 11.075351601430793 0 0 0
126 2 6.189214655126533 3.6928870308912094 11.598408623722893 0 0 0
127 1 5.9621483474928425 10.110577606521916 4.4347578106509555 0 0 0
471 2 24.077730898523402 0.5625411906363151 1.2644671239594323 0 0 0
129 2 6.696616439236744 10.494342607309157 3.912275273461854 0 0 0
130 1 8.247782664076501 11.933541094951263 11.232112553074055 0 0 0
669 2 34.96713015992965 12.972161828243053 2.1337191449622077 0 0 0
132 2 9.089476030021428 12.33633062901284 10.904112378595647 0 0 0
133 1 10.724766884981156 2.840965857794913 4.265410289382531 0 0 0
134 2 10.888219003998584 1.9581939346353523 4.594408765549729 0 0 0
135 2 11.641158516445008 3.1281109627215926 3.9390196436628306 0 0 0
136 1 13.006403538013812 4.806933787100007 11.19842820478654 0 0 0
137 2 13.795857473509344 5.228863459577671 10.734459801616742 0 0 0
138 2 12.631804061731442 5.401064927699184 11.905820462986995 0 0 0
139 1 12.961249031468984 9.835561799323632 4.266758212821873 0 0 0
140 2 13.763861843665785 10.304639312414487 3.8988172750925196 0 0 0
141 2 13.41486190869507 9.107650742658704 4.715127417210865 0 0 0
142 1 16.04022080668038 11.991860039843596 11.050055093081886 0 0 0
143 2 16.911007692112236 12.235409654026913 10.566438555761607 0 0 0
144 2 16.233373607004264 11.17193823837213 11.546973696627248 0 0 0
145 1 6.880847305726317 1.8890408967361936 5.1309970763174935 0 0 0
1884 2 13.576302657856559 18.920345905742355 23.90904897002934 0 0 0
147 2 6.345084718955043 2.6304277059041272 5.494288035554824 0 0 0
148 1 9.27865258526309 4.275237883580311 12.013635878198272 0 0 0
149 2 9.3384570574944 4.123505781253782 11.052906155145825 0 0 0
693 2 31.751422608615776 14.358247263924536 1.6341183779329642 0 0 0
151 1 9.399082878198087 9.316637205199788 5.178120840828728 0 0 0
152 2 9.007610203106728 10.171184872509984 5.432522172486633 0 0 0
153 2 9.740156992274494 9.478627535258441 4.272117455209245 0 0 0
154 1 11.979652370131713 11.305890787491952 12.030502402690963 0 0 0
155 2 11.29587147928572 10.679298519908574 11.797890965590105 0 0 0
156 2 12.574704079808226 11.362856524559772 11.223935035793854 0 0 0
157 1 14.293745011872737 2.0678448639779563 5.165415273412148 0 0 0
3417 2 35.667103447563484 13.30377290757434 3.8781427308933365 0 0 0
159 2 14.67601886918872 2.3047080339398827 4.304891341661285 0 0 0
160 1 16.918499544812146 4.134057563675032 12.110204450848146 0 0 0
161 2 16.432436905596305 4.9276365916242355 12.33523626115087 0 0 0
5031 2 9.776287670210658 11.127329471035077 19.31996740471425 1 0 0
163 1 17.074108040675185 9.204471286693016 5.3483442821225236 0 0 0
164 2 16.62262863545929 10.058971862773424 5.51916105656786 0 0 0
165 2 17.324811199068733 9.369139328840467 4.409779936244066 0 0 0
166 1 19.490143143543598 11.09405657990511 12.107005510900523 0 0 0
167 2 18.970964992149575 11.964282543582742 12.227963919146454 0 0 0
168 2 19.769193127327178 11.164272898998066 11.1793755727528 0 0 0
169 1 9.394797913159005 4.301407346143989 6.019273486967154 0 0 0
170 2 9.819219939689384 3.730977421046088 5.359351265272312 0 0 0
171 2 8.694435279564694 4.708184446804397 5.46684334628647 0 0 0
172 1 11.61664870521278 6.48983082830851 13.066103453718705 0 0 0
173 2 12.015480134724704 7.154149007530294 13.632277085060672 0 0 0
206 2 16.48907968690726 2.684878579302602 3.210452003784475 0 0 0
175 1 11.408550797090639 11.226177634651847 6.20668029652313 0 0 0
176 2 12.032297098698995 10.609363062956328 5.783500484281154 0 0 0
177 2 11.904091617851355 11.964124113386921 6.612199902714175 0 0 0
178 1 14.42839205673852 13.230535863407674 12.885904224323133 0 0 0
179 2 13.776470979090641 13.432411695035391 12.211551045441253 0 0 0
180 2 15.189629104639522 12.768063329067502 12.477825187102082 0 0 0
181 1 16.73013946127855 4.548119168168648 6.039736428959992 0 0 0
182 2 17.469484469265886 3.9636016034226063 5.743965697289338 0 0 0
183 2 17.07170625412137 5.3578849471528684 6.439882895326722 0 0 0
184 1 19.033419504131984 6.39303160976739 13.028302173768626 0 0 0
187 1 19.077216837130887 11.441107256233556 6.193616771605228 0 0 0
188 2 18.774378377731477 10.8469076235799 6.931254394736885 0 0 0
189 2 19.58733489155776 12.180463494431478 6.607769349870338 0 0 0
190 1 21.859158716337735 13.08526007705054 13.084451447757843 0 0 0
192 2 21.173803535382795 13.300174655219747 12.411607492303393 0 0 0
193 1 8.496057001317096 2.607755523259264 2.67917501451752 0 0 0
194 2 7.923372593060677 2.3724647161773427 3.4654632561473155 0 0 0
195 2 9.434777948064545 2.544799378916647 2.9565014733324055 0 0 0
196 1 10.669445696689367 4.288048936260659 9.520978404181271 0 0 0
197 2 10.778408640601619 3.543439852110603 8.994413675724237 0 0 0
198 2 11.510602485565716 4.4885067020611835 9.965832795104468 0 0 0
199 1 10.685333173642778 9.666230925705523 2.7595978000660497 0 0 0
200 2 10.523982860619645 9.035821391424895 2.0974571573491465 0 0 0
201 2 11.529947506140267 9.626218770597147 3.2305035639958475 0 0 0
202 1 13.535501287630899 11.452697132083424 9.856148949606888 0 0 0
203 2 14.497100912044527 11.527496117791788 10.034048378805034 0 0 0
204 2 13.483686171414933 10.885154218752376 9.02862354670938 0 0 0
205 1 15.544140679716529 2.5512949052303053 2.929244825204258 0 0 0
207 2 15.530348279199316 1.9683933790152208 2.1190556552305426 0 0 0
208 1 18.275350288340128 4.414648634866799 9.66418036394451 0 0 0
209 2 17.646945509253687 4.455474715593432 10.35699836728032 0 0 0
211 1 18.54575926824746 9.5952209483607 2.8816108189419425 0 0 0
212 2 18.547520108030433 8.930099806802176 2.1406221462393327 0 0 0
213 2 18.14320068033416 10.477048331442713 2.564918908554502 0 0 0
214 1 20.726667054881215 11.474191920772771 9.351609401847172 0 0 0
215 2 21.557950782120223 11.40878261850266 9.941424064009787 0 0 0
216 2 20.679900978474603 10.63447033825216 8.896389062333862 0 0 0
217 1 5.729271545976484 1.5027129289253545 1.7467332585165816 0 0 0
1623 2 14.334832156379651 4.159628917909987 14.635781441722731 0 0 0
219 2 5.931425651417226 1.876082340126923 0.8686498268591281 0 0 0
220 1 8.471852638067746 3.2153865806634356 8.304828755458082 0 0 0
221 2 8.466780661248615 4.027411502513824 8.919379679754314 0 0 0
222 2 8.817440461852101 3.4998956414451707 7.3883003125839775 0 0 0
223 1 8.264940556006545 8.510671506759813 1.6110433805568847 0 0 0
224 2 8.889197051809198 7.765972955535868 1.8272187886495495 0 0 0
225 2 8.481400502074383 8.856048569749783 0.6744851469243702 0 0 0
226 1 10.92018711916447 10.179813124964015 8.976600554910599 0 0 0
227 2 11.477910263213634 9.36825075179682 9.06883496281456 0 0 0
228 2 10.947445164786444 10.409654684006322 8.043462414633268 0 0 0
229 1 13.17062380421437 1.4064718609179774 1.869087342875902 0 0 0
297 2 7.523975110651373 14.281285460930121 1.327752800944712 0 0 0
231 2 13.11205307533599 2.2868424029579297 2.389510471825622 0 0 0
232 1 15.5578482562833 3.3686756055079607 8.30381189156936 0 0 0
602 2 19.691957935775054 1.0747418959718205 1.6452355987572078 0 0 0
234 2 15.869339135506483 3.755688442059037 7.463973156471072 0 0 0
235 1 15.528845338543945 8.760223079406977 1.8450161233955957 0 0 0
236 2 15.934224978964092 8.92997342990141 0.9622775910132226 0 0 0
237 2 16.183135137578667 8.196142609932096 2.24707584216117 0 0 0
238 1 18.11683687095593 10.195257137213998 8.444113959592496 0 0 0
239 2 18.887751865412355 9.703825713898821 8.751462338578373 0 0 0
240 2 18.13162000662585 11.067101338698293 8.864121764433722 0 0 0
241 1 7.8019980562875535 4.550163790205454 1.1632982596204466 0 0 0
242 2 8.238247846092905 3.973766331098198 1.858746655427107 0 0 0
243 2 7.2337811066233835 5.18578066216353 1.7454365538937078 0 0 0
244 1 10.3326908025218 6.281365680247707 7.776227982541204 0 0 0
245 2 10.468187387224672 5.595565476502999 8.494530318370705 0 0 0
246 2 10.126734947570002 5.7451327430785275 6.9861056902069985 0 0 0
247 1 9.913973738293778 11.60150925991072 0.9859697406555272 0 0 0
248 2 9.246895541450538 12.229578194995044 1.42658561203321 0 0 0
249 2 10.15432957890886 10.999064923914311 1.7197086631701999 0 0 0
250 1 12.397191581419923 13.260232365448175 7.868762124920973 0 0 0
251 2 12.966796001312392 13.030517985818184 8.618050197352416 0 0 0
252 2 12.983755003984019 13.864232868126868 7.367811753644135 0 0 0
253 1 14.903756583609308 4.643442518021594 1.0654807190176345 0 0 0
254 2 15.20451011713108 4.109710216313696 1.8213948641117332 0 0 0
255 2 14.271211896545344 5.229354768160934 1.47643595587597 0 0 0
256 1 17.54749038711887 6.419512890800034 7.95293171697793 0 0 0
257 2 17.929399358032327 5.8985479330668245 8.691512339964191 0 0 0
258 2 16.98125639091606 7.085229520853059 8.39455337572713 0 0 0
259 1 17.47805632237592 11.761900890216527 1.0089798175762956 0 0 0
260 2 16.935779837529882 12.550224821625 1.2532061372586163 0 0 0
516 2 22.620471255198098 12.060455286720767 11.838933309258216 0 0 0
262 1 20.215457982942727 13.53883999217156 7.467283840453639 0 0 0
263 2 20.58764225611858 13.05504415566041 8.265899660461324 0 0 0
264 2 20.87730650636044 14.118725299114866 7.1230785150538365 0 0 0
265 1 9.72256896488823 6.544155584761501 2.77436849658867 0 0 0
266 2 9.051593522717567 6.06987279931017 3.273586083160849 0 0 0
267 2 9.936795427236476 5.822457081519541 2.0965193462501692 0 0 0
268 1 12.357513653622673 8.014725323280446 9.59821315048888 0 0 0
269 2 12.837588198403852 7.414840701458084 8.970286323532113 0 0 0
270 2 11.784086853746349 7.3385330724347915 10.016548037947713 0 0 0
271 1 12.059381068985138 12.974363322516659 2.691953810883619 0 0 0
272 2 12.545473702399022 13.238039600692895 3.4610338699001035 0 0 0
273 2 11.180735528309445 12.744838522934417 3.1007080029884566 0 0 0
274 1 14.682978826000788 14.904020428647351 9.505652846748239 0 0 0
275 2 14.25282202678821 15.74388624153936 9.363182887444136 0 0 0
276 2 15.529711314468413 15.040010079212411 9.978684654322455 0 0 0
277 1 17.112430730256413 6.3142376078794324 3.0464556531235916 0 0 0
278 2 16.376235778792466 5.8555839205012985 3.4937649008067018 0 0 0
280 1 19.623934772620103 8.050230401726123 9.505985336645816 0 0 0
282 2 20.30098134164458 8.284759317887458 10.181801501026461 0 0 0
283 1 19.646061582786395 13.342275221452105 2.7621854291743 0 0 0
285 2 20.380425666107257 13.469064537690016 3.4613845455861973 0 0 0
286 1 22.288578217791535 14.914870114683705 9.504246997342065 0 0 0
287 2 23.08175644398673 15.038379707978422 10.056013455635364 0 0 0
288 2 21.96608546319272 15.768829409458213 9.171071377271817 0 0 0
289 1 5.962861688758174 6.594183815638493 2.075854279525125 0 0 0
290 2 5.6581926898347055 6.536185988713467 3.0091183279305755 0 0 0
291 2 6.626725642069824 7.318567745978954 1.989311778059198 0 0 0
292 1 8.547915275901971 8.656512568729012 8.761456089882488 0 0 0
293 2 8.783949368710696 7.728388973106593 8.59130804854599 0 0 0
294 2 9.422709846865418 9.207026011532117 8.768749947021906 0 0 0
295 1 8.34816932833967 13.929088620064972 1.7631431552633292 0 0 0
296 2 8.01505750191398 13.67446701846557 2.6842584902296234 0 0 0
663 2 32.1693619471152 5.5197010263124175 1.9075805105270358 0 0 0
298 1 11.006249674411348 16.001828156778554 8.692693109697203 0 0 0
299 2 11.326807784455927 15.076583863235536 8.456269597077569 0 0 0
530 2 22.566186988655375 1.802513858846412 5.588429304264947 0 0 0
301 1 13.429978263671918 6.904920767795095 1.819162292723132 0 0 0
302 2 13.032884903384955 7.042260964785945 2.675852839827568 0 0 0
303 2 14.098862959175213 7.615344817630597 1.7034582798472238 0 0 0
304 1 16.16064377574709 8.685323681227299 8.644614590078893 0 0 0
305 2 15.859796811823404 8.584379537945214 9.534564697613195 0 0 0
306 2 16.896566148971026 9.353663923765206 8.590915711833038 0 0 0
307 1 15.909630029707994 13.669526654736273 2.0853729825453704 0 0 0
816 2 18.494932233586347 3.56665828404155 12.586383281591111 0 1 0
344 2 7.000323292960528 14.138165116633022 4.82751980576493 0 0 0
310 1 18.720858111123686 15.777513828527045 8.589486327885398 0 0 0
311 2 19.05803527235793 15.018863337255574 8.093467858289854 0 0 0
3194 2 32.46533891187299 3.4840974432385736 5.073669422915737 0 0 0
313 1 3.480903474353289 4.4345984661037186 1.2553740234349742 0 0 0
314 2 3.4232378456979826 3.751983764290236 0.5321956335284146 0 0 0
315 2 4.317204870849801 4.264745364630881 1.7181782357296058 0 0 0
316 1 6.359028953045279 6.584347195661202 7.861197143155863 0 0 0
317 2 6.767378259387817 7.0771607899227895 7.104418993118736 0 0 0
318 2 5.989506026444381 7.297849248085186 8.458404397282953 0 0 0
319 1 6.220443858577067 11.760502474458107 0.9018959909833698 0 0 0
320 2 5.942511923776797 10.934001497183814 0.4518019276390538 0 0 0
321 2 6.963526687984081 11.5048209656168 1.5750545466942185 0 0 0
322 1 9.047092123056798 13.467505212390545 7.591658517913975 0 0 0
323 2 8.24320022769293 13.932506491972836 7.9464745907846215 0 0 0
324 2 8.582180770169996 12.727202445914791 7.106631493870948 0 0 0
325 1 11.261184898048622 4.777734523938047 1.0818723511402932 0 0 0
2204 2 39.7600225055347 16.40218545469833 15.477710611869995 0 0 0
328 1 13.529650635172617 6.579105266836388 7.630381046454958 0 0 0
329 2 13.067140717197422 5.881939757629718 7.112277407208805 0 0 0
330 2 14.174497351476212 6.169056155807011 8.218609520240188 0 0 0
331 1 13.847154044693395 11.680154321492456 0.9968893916619386 0 0 0
332 2 13.14999809422541 12.06587563636467 1.551470646491236 0 0 0
333 2 14.416825961293283 11.328546494627588 1.7190428907203528 0 0 0
334 1 16.301770903836157 13.651685469549847 7.533476721306865 0 0 0
335 2 16.49070736163966 14.150368163539257 6.684829022183985 0 0 0
336 2 15.644066786589336 14.199416484257508 7.999634062722847 0 0 0
337 1 4.482251361987776 6.520555332872348 4.520618727647529 0 0 0
338 2 4.501503705182611 5.775869276794551 5.139479793932709 0 0 0
279 2 17.356683211812197 5.6762064060758055 2.396948548267722 0 0 0
340 1 7.130070706975667 8.437105417951473 11.343963721946098 0 0 0
46 1 23.96263565323972 17.454105351541685 13.030869447848032 0 0 0
342 2 7.520811250348395 8.675532525211306 10.438135742336389 0 0 0
343 1 6.864108987166217 13.264509245799632 4.437649573530346 0 0 0
345 2 6.069645982303197 13.390634869453844 3.835694574610879 0 0 0
185 2 19.5256895117911 7.144452875391953 13.466973508459267 0 0 0
346 1 9.444954428326708 15.543116324623828 10.925795443573566 0 0 0
347 2 10.061150197330958 15.437647705437799 10.17213382697292 0 0 0
348 2 9.542477494827903 14.728939435745342 11.457621725889505 0 0 0
349 1 12.029595141377165 6.8156046251279685 3.9932884067433543 0 0 0
350 2 11.722055540607233 7.520488622067992 4.609651785704261 0 0 0
351 2 11.190255402354229 6.6176814797635455 3.5469598492376675 0 0 0
352 1 14.783022917112335 8.49423367799514 11.10782421709438 0 0 0
353 2 15.132479043737025 7.783599945169758 11.70949063856884 0 0 0
354 2 13.878525243715254 8.330164406992177 10.771906579040687 0 0 0
355 1 14.341189664844249 13.451666981644943 4.46248013616116 0 0 0
356 2 14.697770912931686 12.59311078778125 4.790538066392893 0 0 0
357 2 14.653037789891272 13.523704502238502 3.5757157433386286 0 0 0
358 1 16.945080949370645 15.292204151047134 11.048865401579532 0 0 0
359 2 16.933618957494755 16.040397820089158 11.682803912139608 0 0 0
360 2 17.730352338695294 15.466730353475716 10.506099394438436 0 0 0
361 1 7.2022058622533 7.835595851864012 5.5038007194395 0 0 0
362 2 6.537643762459373 8.528032806417517 5.300301357234811 0 0 0
363 2 8.020233139841908 8.333671363649305 5.296631110978008 0 0 0
364 1 9.767618058262652 9.555370252399825 11.776662843289824 0 0 0
365 2 9.220403730578832 10.299874781221538 11.522360259686199 0 0 0
366 2 9.511197097184025 9.356976676219947 12.687066024167915 0 0 0
367 1 9.830700635705787 14.854056757383576 5.339244162363084 0 0 0
1683 2 12.516096917500638 5.686904101976498 19.554837245725377 0 0 0
369 2 9.560928895738513 14.44131619169423 6.212398073529589 0 0 0
370 1 12.057579797351954 16.717238957080138 12.129638755157124 0 0 0
1832 2 12.89718590954159 17.7954065097126 14.775791127914854 0 0 0
372 2 12.102921291891798 15.867389870715847 11.66002913667849 0 0 0
373 1 14.593552162117657 7.785244820504965 5.370966748911626 0 0 0
374 2 15.514196926319523 8.101922089215279 5.538505769892145 0 0 0
375 2 14.236752776191643 7.504198453447661 6.185936861160612 0 0 0
376 1 17.196412672892627 9.479158115508525 12.513450060255376 0 0 0
377 2 18.142102883885592 9.661395542696468 12.440915766369592 0 0 0
378 2 17.125441219381923 8.93678308982934 11.728739674414003 0 0 0
379 1 17.051578527142777 15.01005896977724 5.0986856473696 0 0 0
381 2 17.09129362402089 14.232144875140992 4.514046878924739 0 0 0
382 1 19.582647548375316 16.400273403732932 11.752687158234881 0 0 0
3147 2 30.59337547292221 1.1470887966271248 1.2650764355157074 0 0 0
384 2 19.42429370644862 16.13175272240112 12.728594215550531 0 0 0
2762 2 26.82257053079419 17.955885567787906 14.752283993762887 0 0 0
683 2 25.36080068979442 15.999820480919022 8.107968890666266 0 0 0
210 2 19.16449868835729 4.6074183088869525 10.067257182578535 0 0 0
284 2 20.087470304465455 12.719915668098329 2.1363010782902387 0 0 0
1611 2 6.958469011759129 5.0462131718361265 13.79043884943055 0 0 0
1722 2 23.419975742570404 9.391085145007256 27.163318817132485 0 0 0
74 2 1.8256525868649582 1.6678879130143567 0.16483075980248516 0 0 0
2127 2 36.62648173781804 6.408400303868724 16.410292999663156 0 0 0
468 2 20.469595919725485 8.869753949994 6.985462231402693 0 0 0
512 2 20.02464165325024 10.612710723362962 5.17045831595342 0 0 0
312 2 17.895137907913348 15.990027660649872 8.108172739963353 0 0 0
174 2 11.338078409408256 5.770347045932445 13.658467890905042 0 0 0
261 2 17.001340850832186 11.211371170191857 0.4100995495115894 0 0 0
186 2 18.697148544369238 5.858894865337672 13.717446358354604 0 0 0
92 2 10.386873940479555 7.207894891015588 0.41995816027079425 0 0 0
722 2 18.56422624615373 6.120215138803132 4.072086466753714 0 0 0
1617 2 9.478073092462392 12.329752656226853 13.694051412846395 0 0 0
86 2 19.344315409211458 8.73759006255641 27.210327327537787 0 0 -1
1857 2 11.658350711840532 15.731296980950962 13.648938621934327 0 0 0
1537 1 12.705168066764038 8.987612377018769 17.82328423760779 0 0 0
1538 2 13.097004595284815 8.442476533586309 18.491819258197538 0 0 0
1539 2 11.90779662044643 8.45662428187079 17.42750722669757 0 0 0
1540 1 15.136948806763405 10.748778148004405 24.313076489944457 0 0 0
1541 2 14.827388486770284 11.57952753390047 24.795405965133163 0 0 0
1542 2 14.308435767306795 10.271505918225323 23.983402896639163 0 0 0
1543 1 15.078177584328674 16.026834188393973 17.452983085906414 0 0 0
1544 2 15.562124935852568 15.715657239643242 18.18699524542453 0 0 0
1545 2 14.735290666117448 16.9040068956748 17.76402567897327 0 0 0
1546 1 17.289748567635456 17.590082793225783 24.468541992015325 0 0 0
1547 2 17.047108027291674 18.460924650953242 24.841796454099395 0 0 0
1548 2 17.97739703164109 17.21483493748887 25.06074467530508 0 0 0
1549 1 19.943360957068823 8.980270579007742 17.8764537332575 0 0 0
1550 2 20.687305121987755 9.377926989181327 17.436245943838944 0 0 0
1551 2 19.453378429222997 9.76469725464963 18.18888519355183 0 0 0
1552 1 22.534540906259107 10.949137586383749 24.452643193092353 0 0 0
1553 2 21.768568528851873 10.447897514707195 24.07867566390798 0 0 0
1554 2 22.8940497368922 10.554302869583845 25.321580791328365 0 0 0
1555 1 22.45954591015434 15.909422669777454 17.573831041280116 0 0 0
1556 2 22.039813707561986 16.672582473196847 17.914027175668593 0 0 0
1557 2 23.10783637431517 16.16602897493191 16.867529784224356 0 0 0
1558 1 24.674485052146753 17.712252836013906 24.430299586332854 0 0 0
1559 2 25.3570930258536 18.052253598932484 23.77461727866698 0 0 0
1560 2 24.405875711714675 18.548284864836788 24.93072690744077 0 0 0
1561 1 16.80034721064913 11.88083846409002 19.93337352653832 0 0 0
1562 2 16.957509397705632 11.289335287860972 19.167276772668338 0 0 0
1563 2 16.041441227667693 12.48036251701708 19.728415339584156 0 0 0
1564 1 19.157464650120254 13.516852790537886 26.692513383420405 0 0 0
1565 2 19.242269552281105 13.031709861333157 25.85385612377044 0 0 0
546 2 32.47329626284975 3.6715157472102127 12.27326061676555 0 0 0
1567 1 19.01589560677083 18.899602861520943 19.91779708806049 0 0 0
1570 1 21.824312886759085 20.69357045440539 26.81531481988198 0 0 0
1573 1 24.273761733980116 11.730705188362911 19.942301573613474 0 0 0
1574 2 23.46646497478957 12.131106326368254 19.54971791942453 0 0 0
1575 2 23.95249026564048 10.978720783283668 20.478899309624257 0 0 0
1576 1 26.514597044774696 13.678635649535682 26.788296089681044 0 0 0
1578 2 25.765986939282836 14.276805764600066 26.470961726622225 0 0 0
1579 1 26.44776837354401 18.749562324170657 19.922527357500762 0 0 0
1582 1 29.359804164226116 20.607146460415567 26.8130518854385 0 0 0
1814 2 22.498368304826847 9.311236731901802 15.755742238998858 0 0 0
1585 1 10.672845355786462 7.389033681202234 16.558444038196264 0 0 0
1586 2 10.888218596999792 6.468540122480689 16.34604148813018 0 0 0
1587 2 10.246819635983023 7.650260472548314 15.729992417936238 0 0 0
1588 1 12.99146436645156 9.206026066579277 23.293757375624594 0 0 0
1589 2 12.62396278052925 9.608135898304328 22.48140462043119 0 0 0
1590 2 13.269434993314782 8.342645500492516 23.061479646428346 0 0 0
1591 1 13.01864229406976 14.52717124407084 16.50985756456178 0 0 0
1592 2 12.534385751059443 14.180191678306683 17.263391271671193 0 0 0
1593 2 13.786026945361048 15.053632710405193 16.87946730606423 0 0 0
1594 1 15.236060082377115 16.450511121776593 23.272761637427863 0 0 0
1595 2 14.571875792404057 16.21601817190142 23.895200378714797 0 0 0
1596 2 16.012611853143092 16.847864803191033 23.80657735141639 0 0 0
1597 1 17.98925427035596 7.523750090070288 16.46551344759596 0 0 0
1598 2 18.658644656030468 8.0096035944114 17.007093682644367 0 0 0
1599 2 17.567530634789158 8.10353214299934 15.861541511428845 0 0 0
1600 1 20.47744285166279 9.26770036312455 23.135185395630163 0 0 0
1601 2 20.713298047497705 8.373046874565098 22.801378427007606 0 0 0
1602 2 19.68032921972417 9.009573041456205 23.68799864585445 0 0 0
1603 1 20.298219582008798 14.32617378300213 16.61350347959197 0 0 0
1604 2 21.08050970838892 14.896445132710182 16.896056405851372 0 0 0