LAMMPS data file via write_data, version 8 Apr 2021, timestep = 0

6144 atoms
2 atom types

-2.064508961853191 62.032798093036156 xlo xhi
0 28.07239513234728 ylo yhi
0 27.131890895724705 zlo zhi
10.15249205781108 10.176817809000802 7.113130650764862 xy xz yz

Masses

1 16
2 2

Atoms # atomic

1595 2 19.89482873912513 21.236078782011877 16.720069542398218 0 0 0
1604 2 18.612020562284307 18.44315574461655 20.816634124055433 0 0 0
2626 1 14.964912327600581 26.352744249076274 23.79712114344662 0 0 0
987 2 19.407778367260697 14.728224138642146 18.19685501292993 0 0 0
225 2 13.258531654667479 6.531583144630601 4.874024503796947 0 0 0
1061 2 9.198536121694508 7.064384629536209 24.077178204483896 0 1 -1
25 1 14.330509006730596 17.1740616771279 7.309869657903954 0 0 -1
1625 2 13.315179044827175 18.68095583517867 13.996288509270963 0 0 0
1057 1 0.6388337911684441 3.424935088040462 2.064642405776853 0 1 0
886 1 15.188489796492012 19.547306513705262 17.019907958810435 0 1 -1
1633 1 21.185108857382538 13.06836922238532 16.59322550890508 0 0 0
849 2 16.938920400832416 18.54264971851344 7.246604614655188 0 0 -1
2443 1 11.811294214126326 13.769892243784302 6.070262952744697 0 1 0
1593 2 9.201696606679057 10.54528913747429 11.315098423272882 0 0 0
1651 1 16.076769215024335 25.103009754387507 25.897648989157247 0 0 0
1895 2 14.810432290075644 22.897592375154776 2.5685636942118926 0 0 1
1670 2 3.276815449751332 4.827358202542052 0.30210031123728026 0 0 0
1634 2 20.50400190162089 13.725473536981506 16.760375928917277 0 0 0
1064 2 23.300090511575128 31.102305373283063 23.196980272020436 0 0 -1
1894 1 14.838703329627558 22.03183770686722 3.0006023735597935 0 0 1
1740 2 18.982905666670916 20.25580470338617 23.815568894883413 0 0 0
1916 2 15.517605818217108 22.731935476799958 12.284619827785207 0 0 0
873 2 8.386850591693022 17.103081724255308 14.073336241693951 0 0 0
1709 2 15.07969520849622 9.293421426322107 16.483824866319964 0 0 0
2341 1 2.9213901521138856 9.28000805921365 0.7551799493192525 0 1 1
53 2 15.55450376357564 28.74416652976868 8.195615891512078 0 -1 0
1587 2 16.596125211160214 14.066129706877835 11.520312191497952 0 0 0
1586 2 16.635370511607682 12.563692940925128 10.945246945747098 0 0 0
1637 2 7.563266245442842 8.340152692664361 23.417903269786116 0 0 0
2564 2 13.393643605022708 11.53318208697521 3.9464152715141827 0 1 0
416 2 12.858136565373167 17.82502920102428 15.891017203024854 0 0 0
1871 2 19.942352277419438 29.192828226050885 13.72964625136727 0 0 0
348 2 8.317666333851461 15.727540846916913 9.317127838976978 0 0 0
1275 2 4.093433138440564 1.0243015289620285 3.324851422628046 0 0 0
4431 2 6.963273004503787 15.002720494855504 5.449749769340186 1 0 0
2450 2 15.474883417313778 24.58532368052611 19.11442529719908 0 0 0
1708 1 15.29439344805707 9.313010817847623 17.44713830738354 0 0 0
27 2 14.417446104376017 18.153969020889484 7.468300627871798 0 0 -1
907 1 18.052763126741326 22.96056036686345 18.761426806209332 0 0 -1
99 2 6.622342973346161 11.368704708882149 2.4744194282500063 0 0 0
1561 1 10.893237822544204 12.332133313468104 18.19677706705438 0 0 0
1901 2 12.880302480126627 14.886508395674541 26.25823950989251 0 0 0
2399 2 10.529349095020502 24.295049454213817 8.439532698549918 0 0 0
828 2 18.33667854035283 27.74772494837469 15.09056441251253 0 0 0
924 2 13.904371707084017 14.56293561998201 15.138594778840135 0 0 0
1856 2 0.5046475925704366 5.643858820438355 0.09144434102881234 0 1 0
224 2 12.685623035350172 5.126952470002495 4.776156476607504 0 0 0
2408 2 8.25769944143931 18.13033477759692 5.552374743173723 0 0 0
1710 2 15.23584232215166 10.329636169984017 17.56853101654989 0 0 0
1689 2 14.108275167831875 6.631570285048601 10.838367683978673 0 0 0
1705 1 18.893241576077905 15.060455183845342 13.60462897371058 0 0 -1
1773 2 20.874453214790677 33.3070260168179 24.408691668971464 0 0 -1
101 2 5.450250539385186 9.190783356022674 7.784344375775958 0 0 0
1570 1 11.103750271725639 13.958341473377304 16.023982202455684 0 0 1
2314 1 14.192049152589876 22.305058397122306 8.032945334326552 0 0 1
1129 1 15.297836534300083 16.648089696168412 20.020621603001683 0 0 -1
56 2 12.39784628642015 29.844540698277928 9.7586237439796 0 -1 0
1635 2 21.26820914864153 12.51560076644371 17.440553170288442 0 0 0
1017 2 13.172125939804895 27.893383853102733 12.48793939208677 0 0 -1
1580 2 20.839814558788063 9.97388296741305 15.193400637444508 0 0 0
821 2 16.893711677135656 21.87324054964629 25.76443456710013 0 0 -1
830 2 11.150089091272843 25.451141548833263 10.5669650819287 0 0 0
896 2 23.604501011107423 27.244769947541503 19.01968522103078 0 0 -1
1543 1 9.202220296056444 9.79194025155271 18.46362016046449 0 0 0
108 2 13.142141720319035 20.986542033154738 9.34543898383781 0 0 0
1571 2 12.09348860797292 14.178524220882663 16.128788667917796 0 0 1
2380 1 11.280909769836796 16.32653539136476 7.925048189350017 0 0 0
894 2 9.517466634029493 18.189931322001875 3.0499337752306643 0 0 0
1547 2 11.238536852840626 17.459761892548364 20.518478104428123 0 1 0
1274 2 3.0408136887916033 1.1467431494123514 2.2858381651771467 0 0 0
55 1 12.36361494823578 29.458628866836328 8.861153361258735 0 -1 0
1669 1 3.598985753144584 5.468074211406802 0.9555703531542946 0 0 0
1063 1 23.538298470567916 31.687311761760807 23.906968071546398 0 0 -1
1671 2 4.062648547631631 6.145843163978265 0.4989758848533248 0 0 0
1791 2 7.4878679130221215 6.882149247344321 8.039589787934384 0 0 1
1001 2 17.286844505731324 22.96787246870628 7.684932635411179 0 0 0
846 2 15.933993489325713 20.756853566300162 21.723525846843376 0 0 -1
229 1 13.076194099635554 17.414059744519243 23.5946519536813 0 0 -1
1739 2 20.23958512581205 21.030812298652386 23.885960489725825 0 0 0
822 2 15.435399614760387 21.84701692558222 26.549476228929578 0 0 -1
4416 2 12.664597339937078 23.614972882322366 14.723343650453154 1 0 0
4268 2 11.270178255966114 22.943454045732064 0.1209650708193397 1 0 0
887 2 15.01311092042461 20.56836489920826 17.006091290303132 0 1 -1
2406 2 12.200169204690916 21.117957847715143 18.77351668979844 0 0 0
54 2 15.18096853684647 29.11024787839733 6.781808860612731 0 -1 0
102 2 4.65402236402254 8.057969229703241 7.010884639300582 0 0 0
223 1 13.357540928279628 5.722743563066781 4.332056493341799 0 0 0
1917 2 14.820139722731396 23.623388254352673 13.19721618227361 0 0 0
353 2 9.759737266743523 8.63420218646637 8.077121582870744 0 0 0
291 2 5.254568230674623 4.203892422855869 15.321980402026574 0 0 -1
1687 1 14.175891781196173 7.5543409563729345 11.134917037474532 0 0 0
986 2 18.76786916673369 15.32196743341074 16.973150719989505 0 0 0
1706 2 19.67944901154212 14.515700666549565 13.920167968191597 0 0 -1
652 1 19.81780364453602 16.767711877283762 7.381896302646782 0 0 0
1374 2 12.938741769300321 15.297508944636794 5.279439451901603 0 0 0
1688 2 13.265520155642076 7.848731886969712 11.044411668171806 0 0 0
1002 2 15.704545007083722 22.659505671620078 7.375274553127689 0 0 0
1610 2 10.22960221271589 22.29201648072722 3.7771769198134018 0 -1 0
922 1 13.909007447286632 14.394695280202205 16.074815509186312 0 0 0
2625 2 14.786360956203515 18.377803384913154 25.452873470956902 0 0 0
845 2 16.82109945289246 20.188016011901873 20.56181727914935 0 0 -1
1563 2 10.675583361574077 11.385740126358078 18.088605357627255 0 0 0
908 2 18.39776572016485 22.677869665435 19.644842341806847 0 0 -1
893 2 8.788632957788407 18.11438792956662 1.6250961692595398 0 0 0
28 1 17.061867247494746 23.659989505509973 16.005293639117273 0 0 0
107 2 11.739665466969111 20.68020523990671 9.913958575887218 0 0 0
611 2 6.467201800165533 6.055195226517392 18.23308259066829 0 1 0
1114 1 3.246459440725765 3.6922020499522628 4.892003876287765 0 1 0
1585 1 16.15628565203164 13.140163338680187 11.563279759260016 0 0 0
2414 2 15.009798643042165 14.638696482568518 8.338726026765599 0 0 1
2436 2 21.48681637662594 24.842976677791878 11.470485536939044 0 0 0
2441 2 14.84560481614986 24.696443259341372 9.568260663634522 0 0 1
847 1 17.521281289949385 18.795482102704717 8.034940439961995 0 0 -1
2322 2 12.65515732298179 18.409898985989194 21.997984666220102 0 0 0
1015 1 13.13059733900189 27.02881332989267 11.962291252683768 0 0 -1
1738 1 19.53470325031614 20.810099329725244 23.287658826936475 0 0 0
81 2 12.192450004856067 10.378154317044864 26.375853011030564 0 0 -1
30 2 17.859491225571702 23.83285272172848 15.511263093969784 0 0 0
2576 2 9.789461295407408 6.874951651209686 7.067907214501871 0 1 0
249 2 2.0548775130039196 4.5513370246857034 7.761684278761473 0 0 0
1733 2 11.164196853450186 12.546438058812253 24.92996527362251 0 1 -1
2440 1 13.888359390688183 24.568747321645628 9.460431956466495 0 0 1
98 2 7.111978197081193 10.006153270714167 1.892478719502927 0 0 0
4438 1 11.948251869278103 24.277237379984417 11.201644916288965 1 0 0
369 2 15.93317768845702 12.327074942685293 12.975564200178388 0 0 -1
1065 2 24.321098600670837 31.266963812568697 24.24811676512983 0 0 -1
1130 2 14.889044884138285 17.579747375258595 19.925458695702286 0 0 -1
1749 2 5.807231145965158 12.44955927693468 6.992109268119052 0 0 1
962 2 16.25149690811149 21.115865920399273 1.970442620624706 0 0 0
888 2 16.137058128243574 19.481903101120995 17.274394638333238 0 1 -1
1135 1 8.939229471980136 7.455077083046839 16.915861536452585 0 1 -1
1565 2 9.392524689670557 19.09417225318174 14.089474187301752 0 0 0
626 2 11.694687306848426 10.656314283897192 3.411879178146392 0 0 0
4239 2 4.833218280468353 16.525779803924795 2.268678087673966 1 0 0
2362 1 12.827425029559954 22.03428519921128 15.57326974297208 0 0 0
2311 1 9.958209876320607 10.478669388818155 0.5149491065996842 0 1 0
1515 2 9.451734731156037 9.748961254385295 6.050249727153688 0 0 0
1896 2 15.519772728735964 22.042605775352374 3.692896658973591 0 0 1
1546 1 10.892448538867697 16.607413753884963 20.316091795326656 0 1 0
2627 2 14.369679416650966 25.67562467786987 23.409873444121832 0 0 0
588 2 6.3701983946448255 6.476580326023724 2.4902299512536494 0 0 0
909 2 17.11989156600133 23.195936327018185 18.965957724689755 0 0 -1
3664 1 4.6910293111250745 9.948233637779408 4.4260684087537685 1 0 0
4429 1 7.1405423547853015 14.563508085973407 4.612093738185634 1 0 0
1875 2 11.668203503153663 19.679508584670074 6.406401311664344 0 -1 0
435 2 16.014812525027807 6.616105612923745 18.48701185509833 0 0 -1
1273 1 3.960863669547355 1.1570900857751854 2.3791004607756108 0 0 0
1132 1 5.844997219633999 3.7392261455258624 10.921411470826717 0 1 0
1623 2 9.14746242573073 12.206949386465839 20.68305024190353 0 0 -1
898 1 15.27945683801404 27.91856491800102 15.998568435647188 0 0 0
1514 2 8.690185246329817 9.219686936429945 4.939331924934125 0 0 0
1638 2 7.188240813326054 8.477349305893334 21.84582762455958 0 0 0
352 1 9.386362058380238 9.550676760825743 7.885672817839824 0 0 0
961 1 16.886302876561523 21.1585215297688 1.2411113738214516 0 0 0
885 2 14.774894663194596 3.543575473748123 8.938351720114564 0 1 -1
2113 1 18.66821361703459 15.37444136184825 1.3734665965217092 0 0 0
2316 2 14.189898981757027 23.128565526984296 8.599570883693342 0 0 1
489 2 3.0051253940007854 10.764505010025474 1.5514673456281618 0 0 0
3504 2 8.27791227069046 15.71943319808497 11.977424716965672 1 0 0
775 1 12.417299090822956 27.198867632021905 5.826234532204548 0 0 0
1603 1 18.20152538320771 19.076811443805262 20.204441306316596 0 0 0
751 1 11.060751433517162 17.03127454566623 11.989100680059362 0 0 0
1605 2 18.94960268227748 19.769204142669864 20.093400932384696 0 0 0
2403 2 12.310266422802087 26.06480613849734 17.079378148607702 0 0 0
77 2 15.182110131432582 8.884860897381126 25.007237404598516 0 0 -1
100 1 4.981515528576924 9.000159233984379 6.968639753943304 0 0 0
1877 2 11.86070632208854 4.8594920950048985 17.166459436590696 0 0 0
829 1 10.69917715503293 26.00324948600116 9.878872607602828 0 0 0
843 2 12.230145254514357 20.60537842440322 16.636852585029306 0 0 -1
1107 2 5.3165812950612485 13.626013179934047 1.4813147797083648 0 0 0
1016 2 13.891384424631779 26.51004623377371 12.341294234465265 0 0 -1
2369 2 13.325543895592723 23.790498428785572 22.315501290470806 0 1 0
1781 2 6.8370949518886235 13.137825485578567 11.94451884092332 0 0 0
97 1 6.703629725066611 10.416328265681846 2.6757888229690985 0 0 0
2532 2 15.096832069800852 19.18038384389028 15.364162414332975 0 0 0
113 2 19.978782149705744 27.81120129465078 21.3227395636227 0 -1 0
1513 1 9.327279914828425 9.93042822789029 5.084357690518258 0 0 0
1078 1 24.066037765999702 22.852173073699568 11.579158377934297 0 0 0
963 2 17.519843258541826 20.443733941897232 1.3183550593053122 0 0 0
487 1 2.8557854315824773 11.539290237792054 2.141605540021593 0 0 0
918 2 1.7759405691948427 6.055422700965113 3.6932947449983855 0 1 0
917 2 2.7494897676014505 5.575685695760654 2.604069847711651 0 1 0
417 2 13.627012551272001 17.188067108151238 17.107757015673517 0 0 0
985 1 19.08068009248163 14.417498491921723 17.315611625136984 0 0 0
2337 2 17.055172777075605 31.417036764023035 22.575707824611133 0 0 0
76 1 14.553834668825784 9.02460950785549 24.233201648844695 0 0 -1
5975 2 14.794423843795522 20.26731659407516 23.626201960604288 1 0 0
1707 2 19.270622521221334 15.931207094488862 13.87992270410269 0 0 -1
3738 2 4.901920553822219 6.046669700621044 6.363997482765581 1 0 0
610 1 7.1997223868053215 5.416323504285696 18.10199243717474 0 1 0
1060 1 8.38373349316751 7.405983617980669 24.50068020503509 0 1 -1
1079 2 23.235587100939306 23.299553007150628 11.41179422757367 0 0 0
883 1 14.602154134651878 2.6125032603197695 8.72478702712725 0 1 -1
2442 2 13.672557101224344 25.461622273191292 9.164473378577199 0 0 1
1915 1 14.995526081639836 22.667040314576298 13.103397594948028 0 0 0
2451 2 14.91937490018846 23.327672680679548 20.012374271414878 0 0 0
2315 2 13.446818999649778 22.588178193151908 7.391917673617861 0 0 1
2454 2 17.197032775551456 25.765681931376413 26.831364099211456 0 0 0
4266 2 9.033628576171322 21.307981235723418 7.789591584636105 1 0 0
923 2 14.343929953260625 15.212192142885073 16.478916399559317 0 0 0
2572 1 20.753911400098502 31.366243495650547 19.83107017654128 0 0 0
354 2 8.500394864225482 9.607659220655439 8.26292498789359 0 0 0
156 2 5.780326991203942 2.8597448602695685 7.985896605882182 0 0 0
1589 2 16.127875307036568 27.490485433414108 0.34855161756142566 0 -1 1
1616 2 16.29549938681447 19.73281940521732 9.217857383353797 0 -1 0
3666 2 4.865394996557791 9.592319822621043 5.3031148572727105 1 0 0
290 2 6.828145086810752 3.997955016200852 15.194661905461706 0 0 -1
1594 1 18.919444810390466 21.085927729647146 16.62171340798744 0 0 0
2445 2 11.660137607036763 13.080335565184827 5.422569259366769 0 1 0
1588 1 16.189096347244167 27.926856318828555 1.230411489448303 0 -1 1
2236 1 3.4709396597298925 6.382465760520641 9.689487217405063 0 0 1
1841 2 18.63286850968138 11.521082923867631 20.580463219584544 0 0 0
313 1 18.11336856226432 14.858380215581711 11.11611985408395 0 0 -1
1118 2 21.722967500069352 25.647167902505693 24.280019559342406 0 0 -1
1872 2 20.51149090072952 28.60519420023889 14.995816112016348 0 0 0
2613 2 20.69227873094396 26.629866838013033 14.611078493734505 0 0 1
1133 2 5.676794574408119 3.6348356880461363 9.980844451741126 0 1 0
1762 1 8.22098829408661 14.095053685860737 14.57991397117931 0 0 0
1498 1 19.108301225109173 19.254533245763824 1.535771766155209 0 1 0
1621 1 9.329917602749195 13.101752632823418 20.3262968350042 0 0 -1
1870 1 19.97361151152971 28.328709451918915 14.200150938839725 0 0 0
1662 2 16.552005523315344 19.59609178934127 24.549163936626137 0 -1 0
1136 2 8.81165533312455 7.319631856392924 15.95900028603733 0 1 -1
1736 2 8.997073448472433 14.907092748971287 7.30556014749042 0 0 0
376 1 12.334390827861201 5.224786640908176 8.485272431954213 0 0 0
1109 2 16.99557573657227 29.768020400954402 13.488382140530636 0 -1 0
372 2 14.037812844745128 12.66656355203025 18.67532810464276 0 0 0
1030 1 23.79194811105974 10.438870637405794 25.499387551290422 0 0 -1
2597 2 10.254211735306887 22.89276884446876 14.385096229153632 0 0 0
374 2 7.2934041168978965 8.460987381547833 0.7534520322839384 0 0 0
1801 1 11.957698588703567 15.482048339270737 10.15903024137095 0 -1 0
442 1 9.436888607371438 6.66251105568728 5.329399357549918 0 0 0
2601 2 18.057426550246895 20.147996767349223 12.865722858371019 0 0 0
2600 2 17.542886414331427 19.986261361738443 11.42048997213096 0 0 0
188 2 12.885929964534949 27.738891511991433 8.63701670006392 0 0 0
2444 2 10.960182796000094 14.037386487915185 6.401675130208486 0 1 0
1859 2 13.803938052214082 14.815280865990836 21.85026273068252 0 0 0
2642 2 9.100513807924099 4.715035542409032 6.014460416437743 0 0 1
2307 2 3.8457993816046088 1.8208004769809278 5.097250175920248 0 0 0
1119 2 22.795811501006014 26.274616336623055 25.250118440835507 0 0 -1
1088 2 18.578176165500466 28.88636984877559 20.196577857312988 0 0 -1
1112 2 9.82645466495577 18.271318875965164 11.348496833884589 0 0 0
269 2 16.007095918454965 17.801709723766727 14.10287725816265 0 -1 -1
2306 2 13.565641988254832 28.319230606438584 5.301614033259501 0 -1 0
198 2 18.295848958043145 28.54457604408903 10.983951929184666 0 -1 0
1089 2 19.063821116479694 28.171655800820766 18.91124692808203 0 0 -1
2468 2 6.3421441650904296 10.938384839591695 8.536100969255822 0 0 1
2570 2 19.661950050480883 23.036006736628337 11.587812438445154 0 0 0
776 2 12.563317342401712 27.038214578708995 6.81613015189665 0 0 0
1809 2 13.664354127070428 19.52355619016927 11.907689594565538 0 0 0
1820 2 19.74894380946565 16.580559616791483 3.960887470628962 0 0 0
1103 2 14.111809617875453 11.58748165891397 22.14305332808357 0 1 -1
2604 2 17.565628970373055 16.838424453656938 15.448452515508999 0 1 0
2453 2 18.543571706115067 26.860240779259538 26.81034324660013 0 0 0
1134 2 5.708280683094017 4.683927437612235 11.18236281111631 0 1 0
2644 1 12.1032109036098 8.251936550730212 20.770169372122325 0 0 0
1139 2 17.843569936698955 12.16047366010911 2.8588960287152383 0 1 -1
106 1 12.452050403410817 20.301843348614245 9.38445272288848 0 0 0
1735 1 8.789680146423722 15.801353509680084 7.5604305434915515 0 0 0
2646 2 12.340549168041946 8.602054708891623 19.899386617438164 0 0 0
2413 1 15.582595250612945 15.233474201616042 8.981577246346376 0 0 1
895 1 23.885751425121533 27.569510146244504 18.1458543355153 0 0 -1
2603 2 17.842933122423354 17.493143055162662 16.852784354101335 0 1 0
797 2 3.7934213466307636 8.551777539771205 3.6846960931520925 0 1 0
2629 1 11.504774475497133 8.649179796602667 10.250994551207782 0 0 0
2305 1 14.308332321486466 28.964188845903845 5.173934895072011 0 -1 0
443 2 8.625017366908219 7.20047948136491 5.208802097780455 0 0 0
869 2 9.488865963441416 12.631481002985264 7.477534851999868 0 0 0
1058 2 1.049036193522117 4.207833110143849 2.4171046230105704 0 1 0
2820 2 21.27705491446786 25.250748630658748 0.5238968448264801 0 0 1
2641 1 8.438598286132214 4.099476168617623 6.403709993218973 0 0 1
897 2 24.814183431296193 27.831884649552443 18.33380842919273 0 0 -1
318 2 22.464546660572758 29.29390366369544 24.423805306408887 0 -1 -1
725 2 4.683208564972829 2.7210530189384263 1.878069658501192 0 0 1
2456 2 13.703433582846673 16.612512818243047 1.6108477317967145 0 0 1
462 2 26.473126609957085 28.29132426176935 26.7010893405639 0 0 -1
1617 2 15.453680762679442 20.104088237783337 10.390628354428069 0 -1 0
1117 1 21.853357794870313 26.33274954977506 24.945745617045365 0 0 -1
1737 2 8.50078496811434 16.306399299059592 6.803383134234574 0 0 0
1909 1 13.482183837817804 11.274132724467083 14.499866925663122 0 0 0
1682 2 6.632617297632649 7.895121747315389 5.713018750459966 0 0 0
368 2 16.270702460701962 12.725087061793504 14.422045750584171 0 0 -1
197 2 19.874518076500642 28.8402464949812 10.984040365680787 0 -1 0
759 2 6.904873262264227 3.27162860625578 2.334252283248827 0 0 0
2431 1 10.61603619044093 21.860228760682666 11.120930171627268 0 0 0
444 2 9.599437098956678 6.1411086991579005 4.5262714628285305 0 0 0
2513 2 9.956977934741321 4.10404180151203 15.107466462140815 0 1 0
332 2 15.960808858370912 30.220433279647988 19.51164465560326 0 0 0
1681 1 7.28278761098519 8.04672470168349 5.013146677184123 0 0 0
2467 1 6.651535752472238 10.011717447095055 8.62505114201855 0 0 1
1596 2 18.560617018577588 21.646913416952945 17.299884375181964 0 0 0
70 1 10.93603767026931 18.05639272553002 0.5905820538610665 0 0 0
3500 2 3.9280373809632945 15.22955048322384 1.0067679233573938 1 0 0
2321 2 13.072601565063293 19.045239980041366 20.60002321490914 0 0 0
1691 2 17.048610887155753 27.455438157771496 2.6202566601811905 0 -1 1
316 1 22.448733632863465 28.9473275064001 23.46702602271942 0 -1 -1
2612 2 22.135958968588724 26.007369848332885 14.801685495955478 0 0 1
2491 1 16.700651545410494 21.188147241465238 4.735748895122622 0 0 1
752 2 11.454018036733453 16.56819606431592 11.2012457899032 0 0 0
1110 2 17.29898680139427 29.771984385271406 15.044546420146407 0 -1 0
1876 1 12.788095654236423 4.633438655716962 16.819042126476695 0 0 0
2563 1 12.744685288010837 12.015673943504806 3.419600499513323 0 1 0
2630 2 11.770350838136077 9.105230121213706 9.395651072583746 0 0 0
216 2 17.970763021800295 24.61394712168485 13.394067708138083 0 0 0
4415 2 11.995892089601906 24.928375187746756 14.338414248070064 1 0 0
373 1 7.4724993092695655 9.32178894714895 0.3515976719286376 0 0 0
1049 2 12.508589576650166 21.65506480722186 5.4429849894495 0 0 0
2512 1 9.098399509904143 4.459385438563557 15.42581079299167 0 1 0
214 1 17.58177597388203 25.43272070471604 13.039076519174388 0 0 0
1900 1 12.498011209884941 14.229974141583492 25.65254640226373 0 0 0
375 2 8.400726221578914 9.585220974580091 0.4680923415728024 0 0 0
1668 2 17.24053532375374 10.73661466742044 26.308978077439917 0 0 0
2439 2 8.145212104214751 9.85505878234866 13.711901404469184 0 1 0
189 2 11.962027107347929 26.571002821106017 8.731697160601213 0 0 0
844 1 16.016024989229564 20.63817377261436 20.761037571158976 0 0 -1
187 1 12.870553030225903 26.80522968835378 8.388781789087785 0 0 0
1611 2 11.28216388363167 21.48473068570068 2.911335518760177 0 -1 0
314 2 18.49709041013115 15.087381550383956 12.016723192676768 0 0 -1
2602 1 17.782901128352016 16.611547128591823 16.390665001925573 0 1 0
2595 2 14.223951455856232 9.742396452844265 14.54597201157205 0 1 0
1032 2 24.275404881234508 9.746413178658562 26.094813651899788 0 0 -1
3737 2 3.334581678751337 6.418196744468031 6.3677591561137135 1 0 0
271 1 12.690864146271526 9.264181551125688 18.4444780701004 0 0 0
2469 2 6.494925539064614 9.816539352334724 9.561191236981568 0 0 1
1115 2 2.8158747998112474 3.899573231567296 5.742140331139106 0 1 0
385 1 18.57701484589817 16.994396151079652 24.613673082432378 0 0 -1
154 1 5.533875269440398 3.6809018670079277 8.472174441548185 0 0 0
29 2 16.558520976907168 24.52491977365749 15.983274641803057 0 0 0
746 2 15.729522739250326 1.667851585775496 6.159509872863871 0 0 0
625 1 11.158174786537993 9.94307040776069 2.9686960160072866 0 0 0
1878 2 23.229186699425334 31.727398157393523 16.94878832979143 0 -1 0
2437 1 7.4405039925189875 9.353884438183966 13.381616458442513 0 1 0
1615 1 16.25218229102208 20.369723158197544 9.943659065554478 0 -1 0
920 2 20.495973489737345 21.07291331125149 20.672040205377943 0 0 -1
284 2 14.750545408413037 6.694383953452764 21.99156262557901 0 1 -1
2377 1 6.4934935273010925 16.3273496723363 2.7629231121578606 0 0 0
820 1 15.960295088190213 22.139453247113188 25.69803046775029 0 0 -1
860 2 26.706898607880703 28.637371055521342 9.56584195347474 0 0 -1
117 2 12.748055041014828 12.853751319087163 0.32536592567590217 0 0 0
2452 1 7.88915867317775 18.961741559185835 0.13452837705026108 0 0 1
2492 2 16.54637151568855 21.367561313587707 5.661890288835896 0 0 1
1085 2 11.944261895249626 15.183270807215356 2.3162018043170174 0 0 0
848 2 18.190679189497544 19.464130552412655 7.723103636771782 0 0 -1
273 2 12.072852913016233 9.618851818417783 17.783174783530942 0 0 0
1084 1 11.158246060950585 14.713878727826936 2.750219811842551 0 0 0
1910 2 13.117495969159416 11.365692402405942 13.601792445717168 0 0 0
1087 1 19.390292653641666 28.790703149506005 19.616527847387992 0 0 -1
57 2 12.550083146441802 30.166978183804947 8.193432222739709 0 -1 0
196 1 19.135243937401725 28.313995450903736 10.620217340670806 0 -1 0
2382 2 11.52963590437741 17.23578278665083 7.630356041073132 0 0 0
308 2 10.617798588219786 7.266101863840548 20.18191000456547 0 1 -1
309 2 9.936152492438003 6.521019979326686 19.02075900666208 0 1 -1
3003 2 19.5057178768474 30.05341393559185 7.881043072753466 0 0 0
2672 2 15.034030083986165 30.96517547449972 13.61217418886599 0 0 0
880 1 18.31558427893833 27.202161298546507 18.003348791381832 0 0 0
315 2 18.269783067772288 15.660210338589067 10.586831785060362 0 0 -1
283 1 14.582839042208699 7.064990476324805 21.095742114645766 0 1 -1
386 2 17.750658476998048 16.44124673329204 24.536296953849913 0 0 -1
6023 2 17.2152746412995 28.709705543989454 22.039095644760888 1 0 0
726 2 4.662204992951005 4.12456457965148 1.4864967207072879 0 0 1
2320 1 12.265314900163826 18.79903639246993 21.187395114267893 0 0 0
1652 2 16.108451506567704 24.1455340495666 25.797881321436524 0 0 0
387 2 18.191217843180553 17.8225406767389 24.98892323269223 0 0 -1
319 1 23.03619934182113 20.670373092536117 12.796773144851281 0 0 -1
1559 2 10.629455371514055 26.171212006635628 2.8171402715825296 0 0 1
1683 2 6.91419737092775 7.662673341637085 4.166262115517606 0 0 0
1558 1 9.99193125272131 26.817306521782303 3.0709276160347376 0 0 1
1763 2 8.714304853815694 14.780419732583086 14.01970269790577 0 0 0
2339 2 6.300819945958356 6.508094167064462 12.52060397146374 0 1 0
2402 2 12.266502730196187 24.56833488045755 17.11552582053961 0 0 0
285 2 15.166090042746033 7.874235638436237 21.130899701551797 0 1 -1
1035 2 19.37343491987928 8.094403890615567 20.35435407927283 0 1 -1
1583 2 10.618286241857707 13.44841161880485 11.438310439817224 0 0 1
1802 2 12.744119202868298 14.986740127047483 10.368833373450089 0 -1 0
901 1 15.03533562281637 25.39215588430088 15.76237244834929 0 0 -1
902 2 15.157910497954648 26.285729883956606 16.004069067203638 0 0 -1
320 2 23.279066762512358 21.604547550677687 12.62653069751738 0 0 -1
2493 2 17.661519027616286 21.42055865123452 4.6721484874401416 0 0 1
1704 2 8.928004652137123 16.49497646462544 17.598277980726834 0 0 0
2645 2 12.806840946355313 7.638319177186609 21.042209775284846 0 0 0
1600 1 15.296022934005036 16.310271293215322 17.44105936139995 0 0 0
123 2 19.109230754193085 17.238669151898208 23.035974325366507 0 0 -1
367 1 15.863412494521997 11.985324855201965 13.884090621362896 0 0 -1
2462 2 18.622334852370592 24.47053800488675 22.492399458109606 0 1 0
317 2 21.969890741317627 28.094332804326438 23.508576284352372 0 -1 -1
2571 2 18.709709711444056 21.85957331156117 11.441513819948808 0 0 0
3001 1 9.99361423203557 2.7547321855923457 8.072912432290247 0 1 0
115 1 13.049572123225813 12.133827012246183 0.8555327355858154 0 0 0
116 2 13.11615314200603 11.416728019228074 0.18432176273827586 0 0 0
2529 2 18.15017969729709 32.4805150194363 25.78782972183712 0 0 -1
724 1 5.266945372627373 3.4063248880929367 1.537352055701357 0 0 1
2415 2 16.35748366262652 14.655628552138452 9.053826375084645 0 0 1
1911 2 14.367000333448386 11.678744864998958 14.461973711441928 0 0 0
1048 1 12.548115587896667 20.6686558352429 5.370818907822186 0 0 0
1235 2 8.157007927611543 10.17921861748323 21.700937991229484 0 1 0
1548 2 11.60849311611582 15.986589867087984 20.09831090943424 0 1 0
1086 2 11.45279559163103 13.792359157025915 2.9852420187626834 0 0 0
627 2 10.452379457704588 9.677796769055302 3.631653224262326 0 0 0
1083 2 20.571687384796164 12.69034958928827 14.988627552273337 0 0 -1
2514 2 9.001483153351753 5.339551255554892 14.972697899762426 0 1 0
2764 1 29.42891637030869 26.47585987795653 23.20150597536459 0 0 0
2565 2 12.941042298240136 11.829994429536216 2.48116248348471 0 1 0
2516 2 28.265315274855794 31.055510572654416 12.157948321323907 0 0 0
680 2 21.349163434802904 29.000655148406988 5.416566268937169 0 -1 0
1592 2 10.661459028615804 9.736375119835138 11.22626465335157 0 0 0
1803 2 11.870313708602968 15.64906719737882 9.209049066397277 0 -1 0
2338 1 6.240954305023948 6.5380811631886475 11.572930199879329 0 1 0
2438 2 6.721182353557722 9.35847242349072 14.062364275204933 0 1 0
841 1 12.006359921664526 20.076017395838488 17.434375346295553 0 0 -1
2569 1 18.76348853158086 22.81847100134739 11.351505360392474 0 0 0
2237 2 3.887651167664604 6.238138081859688 8.814765068771523 0 0 1
788 2 15.065903414366526 25.571025204003767 14.074669218525571 0 0 0
155 2 6.047769423106788 4.446480899694738 8.17654588583996 0 0 0
1111 1 9.226932058188124 18.91617714223289 10.98169439078861 0 0 0
2681 2 11.574128666121766 18.868821745378895 3.243280597872896 0 0 1
1234 1 8.852457536381682 10.545884069477514 21.12043124651937 0 1 0
2624 2 13.763791599509618 19.654061265664236 25.411352457735063 0 0 0
1572 2 10.914324108959223 13.336481017442233 16.754008888507915 0 0 1
2682 2 12.313073969711617 19.932633479215422 2.1547816274527376 0 0 1
1602 2 16.161597986599887 16.437388820011147 17.085151274472423 0 0 0
2680 1 11.679542067356245 19.872098480747418 2.921756074511571 0 0 1
1236 2 9.622483617805955 10.344889196903477 21.698511415270186 0 1 0
1782 2 6.98613676201639 13.425183389391194 13.504422036446346 0 0 0
272 2 13.54118761879557 9.434697480681294 17.969792093065738 0 0 0
1582 1 10.221515906631014 13.365793899451432 10.592122057879457 0 0 1
2574 2 20.301173286062856 31.978993383995654 20.454331645651383 0 0 0
2631 2 11.086246233026166 7.820423179455814 9.982730613596537 0 0 0
2636 2 17.371090659433946 30.00375297784095 24.89893391765884 0 0 0
1886 2 23.28882438495976 29.66464716300095 8.532377838244715 0 -1 0
1059 2 1.0179075737745884 3.4207218393292993 1.1275429983451237 0 1 0
128 2 8.835369133105132 7.384817689136199 9.742676969094793 0 1 0
1890 2 11.008796066691866 16.632179810341185 3.545948742093201 0 0 0
1840 1 19.129842237900256 11.19030280453132 19.784142641629018 0 0 0
1842 2 19.35008529578881 10.21978897254537 19.858543701432808 0 0 0