LAMMPS data file via write_data, version 8 Apr 2021, timestep = 43413000

576 atoms
2 atom types

-0.034780082426033955 17.954781082437766 xlo xhi
-0.23978108242442214 17.749780082436832 ylo yhi
0.11021991757429958 18.099781082439808 zlo zhi

Masses

1 16
2 2

Atoms # atomic

5 2 2.4006570312193416 2.591223163708546 1.0931283754522818 3 2 5
4 1 3.0053564448426586 3.012870230327911 1.700342716492621 3 2 5
6 2 3.622186653624099 3.555472784865211 1.2100956341448823 3 2 5
543 2 4.1273138781121315 0.6746767453057487 3.83144531436679 -1 10 3
167 2 4.399720488093634 2.222810630154264 2.3292102827264034 1 -1 0
525 2 2.10575241424232 4.112415505864857 2.610696415990097 3 3 1
541 1 3.5753049025368977 0.06619342716065463 4.382727308205746 -1 10 3
166 1 5.196681520380702 1.6362594963809547 2.586356604798229 1 -1 0
168 2 5.488273357407466 1.1460861558506519 1.7761962219492928 1 -1 0
500 2 6.95817552183881 1.8079357802249518 3.0416808534334874 -2 -2 1
499 1 7.846007274759681 1.6206410285587773 3.282530774551736 -2 -2 1
501 2 7.8576247340643715 0.635230208020467 3.4105314766487624 -2 -2 1
406 1 4.917165881558229 4.176824347826387 0.3456773450208342 -1 4 2
475 1 5.705648236759227 -0.1132661205320267 0.47442749626453273 -4 5 -2
523 1 1.5277722135432965 4.725987993226229 3.1011389386124986 3 3 1
524 2 1.6721820420223474 5.649110245655725 2.880063428489937 3 3 1
152 2 2.12446594076906 7.2571857736962855 3.976547583383703 0 3 1
151 1 1.5535243925596551 7.387662120866419 3.1302472139947404 0 3 1
153 2 0.8138252746214938 8.002006035536844 3.375640653864633 0 3 1
218 2 2.6369274825941504 7.432354165969513 1.7555682558322188 -4 -1 2
217 1 3.250413037848737 7.498360442653158 0.9515050425869479 -4 -1 2
219 2 2.734575624801541 7.1946314992992075 0.1784890773287522 -4 -1 2
408 2 5.653251890252389 4.663434485748363 0.8061044645730944 -1 4 2
285 2 6.556302587025317 6.363884534078246 1.2852618531772668 2 1 -3
283 1 6.772807274919096 5.420222023313471 1.550486639316596 2 1 -3
171 2 7.230555112511645 5.160615071386638 3.319721720141791 6 1 -1
284 2 7.681351251431264 5.293836239621261 1.1590768578326351 2 1 -3
169 1 7.39753925395525 5.428555801914202 4.2333822087843584 6 1 -1
460 1 5.917682106948052 8.013198988876791 1.3087774765192914 1 -2 -2
461 2 5.004650802151566 7.693420680947711 1.1397068053448967 1 -2 -2
281 2 8.642329704124927 6.574000521612422 4.158957277923141 1 -2 -2
462 2 6.224880704010787 8.345934689152417 0.4250512207000691 1 -2 -2
238 1 2.6110365983166153 11.405077190937716 3.103004891062955 0 -3 0
368 2 3.3685524478996265 10.317011480667906 4.024579367635617 -3 -2 5
240 2 2.549456916909693 11.027191757579956 2.2096995035464473 0 -3 0
239 2 1.6433988129467454 11.60814466233379 3.2837485997862412 0 -3 0
134 2 3.428799195098344 12.931097732449873 3.358378596462645 3 -4 2
154 1 0.28378520108686683 12.374793140242344 3.2421073342833497 -3 -1 0
453 2 1.3493341945331734 10.105333451808484 0.3584463795156928 -4 -2 -3
451 1 2.3101602575958218 10.228456801152603 0.556855487426257 -4 -2 -3
452 2 2.6003067213514557 9.288193903595491 0.6799589328257275 -4 -2 -3
367 1 4.027459323919646 9.803649009716029 4.57471145917784 -3 -2 5
456 2 7.958755145584741 9.986013784267904 3.7913189559274865 0 4 -6
386 2 6.216452989861307 9.522190060204293 2.426291445716432 0 -10 2
387 2 5.5489516607499985 9.978003626065957 3.761946289116173 0 -10 2
480 2 6.469990912470807 12.048400099671804 3.322689076308673 -4 -4 1
385 1 6.349540157662439 10.131214722179973 3.130008339029934 0 -10 2
478 1 6.602751718530071 13.025590467929783 3.4125263230044824 -4 -4 1
48 2 7.474869983260125 12.889309466940999 2.00036136913082 5 0 -4
46 1 7.844112187488037 13.005621429033864 1.1243213398968115 5 0 -4
454 1 8.875566479679653 9.856697287083913 4.141996008319863 0 4 -6
355 1 3.302588981261826 16.345787854918783 0.17258806027751705 -5 -3 -2
156 2 0.45895279941848005 13.322193664766077 3.4478026849849934 -3 -1 0
345 2 3.147252908193777 16.60899585343531 3.445045988699024 -2 1 -4
143 2 1.5464401517894792 15.214759373883266 3.4178572063878176 2 5 1
344 2 2.9573771717621535 16.06353852946651 1.8966992352816652 -2 1 -4
343 1 2.8761866024922016 15.89707565014238 2.852910375422623 -2 1 -4
142 1 0.7739520633595522 14.749996084381506 3.9060444906135894 2 5 1
135 2 3.6803917070771095 14.486949927204636 3.213401285550758 3 -4 2
133 1 4.071478234575241 13.645229414536661 3.5007422503889254 3 -4 2
144 2 -0.02175879988084617 15.292788397071643 3.7530810145248075 2 5 1
479 2 5.700938409283323 13.38915346383404 3.438429623056019 -4 -4 1
477 2 6.357695220849202 17.162439645793555 0.5493996586576357 -4 4 -2
328 1 8.359066288886568 16.863759094988044 3.7971024441437597 -2 -1 1
189 2 7.905555734421895 16.58716274750694 2.175890535919905 2 -2 -4
187 1 7.604833526973317 16.145669513207366 1.3598972880236864 2 -2 -4
188 2 7.380014061420877 15.255677142354648 1.6620848423472436 2 -2 -4
329 2 7.841632532134085 16.350577228299862 4.43644058370109 -2 -1 1
47 2 8.779460924269042 13.487773151965452 1.2777596601618713 5 0 -4
476 2 4.8963859818672395 17.429847569330512 0.2818213922652623 -4 4 -2
411 2 1.0903115976710918 3.9979200579766094 4.831865760320405 -3 0 1
542 2 2.7485114424892902 0.5076273179644248 4.7033989336406234 -1 10 3
363 2 0.49235980060825774 0.9757941504289898 4.806921228438906 -1 0 -1
503 2 3.3002242260628205 0.4642801410568464 8.40877285123734 4 5 0
300 2 0.5854669143910239 0.9909291249268486 8.284197602052906 0 4 -4
362 2 1.21281660748613 2.15191621760848 5.496431260793369 -1 0 -1
361 1 1.2006326062583643 1.153212297999189 5.399967873273861 -1 0 -1
298 1 1.2367907376809706 0.36825330661397565 7.975092227995382 0 4 -4
299 2 1.232534263240242 0.39473849522809484 7.0203328669736464 0 4 -4
409 1 1.0007082166924295 3.837738714550062 5.764225124324725 -3 0 1
502 1 4.217839620694562 0.18323743386181823 8.287881077088336 4 5 0
14 2 4.197782131850241 3.2257111771575326 7.211556801017779 2 6 -2
410 2 1.8214017418503987 4.15301266475446 6.127809302233521 -3 0 1
13 1 3.4980041324775994 3.9138668606480027 7.150667121858138 2 6 -2
140 2 2.2782313275436423 3.7183912653893993 8.770999162025715 -4 6 -2
327 2 8.339524195591324 2.750405660263934 4.624187221713481 -4 4 -3
335 2 5.5232300135737695 2.9149194016602213 9.013807320996788 1 -6 1
325 1 8.60839124742941 3.427163431926757 5.265133303878297 -4 4 -3
336 2 5.23667610279169 1.5320397909497216 8.253878458012851 1 -6 1
225 2 8.398605314077443 3.0786787822991806 6.8194717398353255 3 6 -2
224 2 7.456713714541948 2.4610591945598417 7.926548606307176 3 6 -2
223 1 8.353042664398178 2.7654265986058046 7.725716578865995 3 6 -2
334 1 5.708477253478554 2.4155510398999325 8.181188750075377 1 -6 1
472 1 3.050167556753197 7.495461009036882 5.2322214638699975 1 -4 5
33 2 1.5533946820062243 6.884671423158213 8.647059018980498 3 -4 1
112 1 1.7760379873373897 8.00041505709746 7.3739293332737725 -6 -3 -6
474 2 2.5160992013750256 7.629577401535113 6.068906378289018 1 -4 5
15 2 3.9645925936073816 4.70308730099616 6.844843993524528 2 6 -2
113 2 0.8613280193053203 8.011294146875688 7.067233107393098 -6 -3 -6
488 2 4.419675763907626 6.490207803400753 5.577548638719557 -2 -1 2
473 2 3.3740878118708095 8.414567038027434 5.042166975210146 1 -4 5
252 2 5.75706428580909 6.758109141005556 8.945340568343259 2 -5 0
326 2 8.141063188128475 4.260325828757397 4.9774366245561295 -4 4 -3
170 2 6.56437685413374 5.534656949165833 4.7238746745387425 6 1 -1
487 1 5.158245617989765 5.926848864724103 5.765449160821729 -2 -1 2
243 2 8.25315493848135 4.351669447224644 8.587337378699772 4 5 3
489 2 5.601374968247302 6.212362680391486 6.57414382789888 -2 -1 2
250 1 6.4129620954493545 6.748982704690198 8.20306030494636 2 -5 0
251 2 7.181570075667776 6.195170786217588 8.573995047339091 2 -5 0
241 1 8.526779840339973 5.216886155522201 8.983216982447676 4 5 3
114 2 1.9184273118987107 8.988633993142399 7.516753385842357 -6 -3 -6
27 2 0.0972245742107366 11.85489332109641 7.533827782117714 3 -1 1
26 2 0.6259712441849598 12.655641177362577 8.724370488800451 3 -1 1
369 2 4.379262180338464 10.4384785439633 5.173324402711706 -3 -2 5
457 1 2.6723969684906015 10.416166094947226 8.052025622929932 -3 -4 0
539 2 3.228773504386505 11.327148763540045 6.959130401895808 5 -3 10
538 1 3.689189438531535 11.93668765903735 6.2748874429746 5 -3 10
540 2 3.047893984177281 12.654515213934014 6.11681597897546 5 -3 10
459 2 1.8671373473593027 10.898039697899634 8.417645399832569 -3 -4 0
25 1 0.29028594322511136 11.79213451528978 8.472923951596197 3 -1 1
458 2 3.2671379515841372 10.267225226943781 8.78264521353871 -3 -4 0
432 2 0.15161162411553702 11.843497964639532 5.36201837469521 4 7 2
138 2 6.938631426926412 8.886643234260719 8.239165364450256 2 1 0
275 2 8.75276310808826 11.63890086251642 7.041824980112881 7 4 -1
455 2 8.841892842424848 10.3787774842821 4.945788357996437 0 4 -6
136 1 7.091806882660457 9.617949190688485 8.843267910228759 2 1 0
266 2 7.3669605848337225 11.3120786121321 8.229759591522168 8 -2 2
21 2 6.343904993640215 13.204247174551922 5.142661077785562 6 2 0
19 1 6.009347571083733 13.15966691023296 6.085780534187621 6 2 0
267 2 6.938729586547793 12.498276971486002 7.330975119826926 8 -2 2
265 1 7.489466784963058 12.22165769274849 8.11125595259241 8 -2 2
20 2 5.125811911862846 12.611836872363039 6.137869192448309 6 2 0
88 1 1.7770128963055474 14.372872481111717 9.06153324986215 -4 1 -1
504 2 4.161913654575017 17.63142117812734 7.467698777654115 4 4 0
203 2 0.47434057672202407 17.158025883072344 9.07129221144713 -3 0 -5
425 2 4.263378265537003 16.88117766055599 5.455275853849912 -7 -1 0
18 2 1.4911741754023073 14.322077817847907 5.598710661047112 -4 -1 1
17 2 2.8704365757402353 14.957840730550549 6.17208489558757 -4 -1 1
16 1 2.1977351525804805 14.278252460265843 6.284044348301715 -4 -1 1
90 2 1.966838278663189 14.115182954712271 8.156518857063979 -4 1 -1
62 2 6.90516358188869 14.894671343399008 6.082050031188118 -6 1 -2
61 1 7.132128161426524 15.846936877382504 6.227947153743816 -6 1 -2
424 1 4.507424864731444 16.398600674176578 6.27060419161278 -7 -1 0
63 2 7.616388686945856 15.916080615939165 7.061304944866966 -6 1 -2
426 2 5.434012857622996 16.185601598709624 6.260936786935153 -7 -1 0
115 1 8.611080356099546 16.426218313594457 8.236158454667498 1 -4 -2
253 1 0.43569881328330023 2.566173172436046 11.252329594355855 3 1 3
254 2 0.671318352085625 1.7249477517700662 11.633546682038746 3 1 3
255 2 1.213802000842892 2.899164117275812 10.749855059050619 3 1 3
139 1 2.124189820756866 3.8324640579631306 9.706099286718766 -4 6 -2
59 2 4.089147428774822 3.7125309468382173 10.442688366466598 -1 -4 0
79 1 1.3476063886624574 -0.02587004987932398 11.603740984565263 2 5 -2
308 2 8.9243474058047 1.9531070022712806 12.728551010615154 -3 1 -8
58 1 5.03413918650314 3.476911837919121 10.520959091474953 -1 -4 0
60 2 5.199207677557843 2.8020996499996316 11.18801906170842 -1 -4 0
526 1 5.820447295920757 1.6646840274074326 12.408373923090954 -1 0 -2
528 2 5.66664812597252 0.9669142943267515 11.704255452688654 -1 0 -2
527 2 6.657232616707607 1.3671981088885388 12.798242326713874 -1 0 -2
307 1 8.350801953127842 1.375500711619414 13.356780884306007 -3 1 -8
309 2 8.5816740285182 0.4553307331396534 13.062566799192696 -3 1 -8
324 2 6.672933162766615 4.25456450653437 11.370641526166702 5 2 1
141 2 1.8267196655454758 4.7524510832083875 9.764082897267285 -4 6 -2
208 1 4.193801609866577 7.22718254589417 9.663500942740697 -2 -4 1
32 2 1.2612871889459167 6.959020639689424 10.156501492564468 3 -4 1
68 2 3.3640006988737423 7.036366002866867 12.415341070692623 2 -7 -6
209 2 4.270876342009223 6.74312109035418 10.54649500320718 -2 -4 1
103 1 2.134782230016017 8.078327304121851 12.58964838585685 2 1 -2
105 2 1.3269155380483297 7.938032659826629 12.141235390860931 2 1 -2
104 2 1.9420973415153238 8.234860068366677 13.561672494796689 2 1 -2
69 2 3.8389212399235384 5.615970905426792 12.670374103724614 2 -7 -6
67 1 4.102831448507497 6.406551131993203 12.256923299928932 2 -7 -6
520 1 0.030003911528749407 7.755983029273812 10.937900651834973 6 7 2
210 2 3.2173497066204146 7.048496242287959 9.49642376415969 -2 -4 1
31 1 1.7572155121106194 6.416440387908483 9.516137368270698 3 -4 1
322 1 7.524247847913691 4.754499061506706 11.495010063336046 5 2 1
323 2 7.851120247371982 5.1207530727706345 10.643953079861575 5 2 1
261 2 7.017673458472494 6.005429680062628 12.414287933119851 -6 0 3
259 1 6.679431708022461 6.785803741795344 12.963105126055734 -6 0 3
260 2 5.707007408603057 6.7772993460721205 12.802103433335027 -6 0 3
297 2 7.407932794830979 8.226285524513644 11.891547190695734 -2 -6 1
75 2 4.345874572263696 8.873420945584696 10.01629383888483 -4 -1 2
96 2 3.4122741512620003 10.963830542095149 12.898537630009065 -3 -8 -3
95 2 4.197148958955508 10.514531367434754 11.598745603011642 -3 -8 -3
94 1 4.061738099526398 11.226530016416644 12.19955973115366 -3 -8 -3
29 2 3.478364697151886 12.989750651230732 11.627517500855479 3 4 -8
73 1 4.482827210332242 9.879103289073079 10.0008470201859 -4 -1 2
137 2 7.363950750294898 9.345488648186947 9.71202764765282 2 1 0
295 1 7.764876426045395 9.083456318801229 11.753542915308143 -2 -6 1
93 2 5.6077551557335035 11.411017689220804 12.758535316025734 4 0 -4
91 1 6.5563132452391075 11.34427723362105 12.721480672928266 4 0 -4
92 2 6.831638448062724 10.403808610318924 12.46073924320047 4 0 -4
536 2 7.073549511014639 12.60050495060515 11.254510530739564 2 1 -6
537 2 7.591457680218405 12.89187444987259 9.855887538809746 2 1 -6
74 2 5.288997692814553 10.051731293137 9.494948725641835 -4 -1 2
535 1 7.765437546958607 13.12655980655866 10.778236946554868 2 1 -6
296 2 8.73496728010621 9.014696975966835 11.755526443855604 -2 -6 1
11 2 0.25132571086044114 15.661783502949236 12.873847826566196 2 -1 3
81 2 0.9268817014758565 17.605288985836847 10.823632806756521 2 4 -2
80 2 2.261854480167581 17.493515317618982 11.516767933131145 2 4 -2
30 2 2.0644989123268096 13.53268154980419 11.538200528867183 3 4 -8
28 1 3.0267279553322934 13.799347107425923 11.300881429688122 3 4 -8
378 2 3.4017837151540133 15.588390857545381 11.835662065973327 1 0 4
376 1 3.5950233241019056 16.520418832588643 11.98183541865159 1 0 4
377 2 4.376414450360996 16.800053321331518 11.520662353894954 1 0 4
482 2 0.20995679892131647 13.50629716268526 13.137660012429382 -2 -3 -6
481 1 0.3525278170899244 13.87259970168316 12.257175517185384 -2 -3 -6
12 2 0.23059413022589628 17.176991244464478 12.663608422744273 2 -1 3
89 2 2.473273399976767 13.992535431498128 9.591753837201518 -4 1 -1
202 1 0.08489158084445103 16.627925901054866 9.82376318783585 -3 0 -5
204 2 0.4591008421146602 15.718347936755212 9.698194708511634 -3 0 -5
102 2 5.079038060638719 17.69377088452614 9.719481576663958 -3 -2 2
100 1 5.594892985135235 17.632246303170668 10.576410256609076 -3 -2 2
101 2 6.426145852644076 17.112206550879662 10.528102045821143 -3 -2 2
509 2 7.644433391811157 14.976269968654499 10.810640407385 3 1 4
508 1 7.722860174614813 15.954376927220025 10.79046088994294 3 1 4
510 2 8.3098571684441 16.173518986966265 11.555070999774552 3 1 4
117 2 8.408712040418335 16.408013440300238 9.16065711710129 1 -4 -2
395 2 3.6438987796073894 3.5390492210788773 14.333116903342747 -1 0 -2
360 2 1.2670872451878215 3.0066798999953117 17.11063419164011 0 -1 2
359 2 1.4145057524350095 1.345704741166962 17.243391779036237 0 -1 2
557 2 3.951764480545468 0.1411582593849226 14.65641904310024 -1 -2 0
496 1 1.5438835966038347 -0.2065017087857285 16.476079673332436 -5 4 -2
310 1 4.425566153272943 1.6686729341681126 14.651236988245122 -6 1 4
358 1 1.3381941334589453 2.2107633921161836 17.699124977546386 0 -1 2
65 2 8.712985491727517 3.9980904221554803 15.788324592035474 0 -5 6
311 2 4.911401337909781 1.6728260349985398 13.805253912647572 -6 1 4
312 2 5.1249914637676275 1.878598894061295 15.354224915232304 -6 1 4
547 1 8.519100096947035 2.305003982008656 15.991996511266407 1 -4 -1
371 2 5.939290091565902 1.24534406116713 17.30181000683273 -6 -2 1
370 1 6.005431006200746 2.0322139839199904 16.74778212976143 -6 -2 1
372 2 6.951328922376439 2.0717615590083858 16.586272697829653 -6 -2 1
549 2 8.415224110652051 2.0885475300548624 15.010821998688051 1 -4 -1
407 2 5.299297425719542 3.326016166878528 18.096061343348882 -1 4 1
394 1 3.3227802203789247 4.448731972455281 14.175566705530626 -1 0 -2
128 2 1.9334890418008943 4.459331731103829 15.287119378320723 -1 5 -3
127 1 1.2298717639270134 4.537616254452305 15.94039068655462 -1 5 -3
399 2 0.26500095924106476 6.8008428459035075 17.321824973856472 2 -3 -4
396 2 3.914005668199961 5.01593995719646 14.716408111978309 -1 0 -2
397 1 1.2208845888081616 6.83135221143359 17.11420021353184 2 -3 -4
398 2 1.3559087275907256 7.460073002221563 16.40940677806941 2 -3 -4
129 2 1.3730847761010065 5.354569207265198 16.45869050419671 -1 5 -3
184 1 1.3638025389207582 8.581250491142967 15.096589482360288 0 4 -1
379 1 4.667738930696447 5.851337764630643 15.958603266078905 -1 1 -2
381 2 4.702485427760771 5.407954435810813 16.84909447328784 -1 1 -2
207 2 7.09352724776527 6.9767768246256665 14.554327338636858 -2 2 3
380 2 5.605903646492706 6.145140169597031 15.825055791997153 -1 1 -2
205 1 7.1886342100710765 6.733685245178679 15.50703543358345 -2 2 3
206 2 7.407186863593596 7.514610286912817 15.959970704459696 -2 2 3
66 2 8.42141420020018 5.603333083146095 15.605172580769851 0 -5 6
180 2 -0.008770656757025708 12.893178052779144 15.34709253349849 -3 -5 0
186 2 0.38184078588661385 8.851668946546168 14.958049150471224 0 4 -1
185 2 1.8880487306883458 9.440654234033468 14.950424205399704 0 4 -1
346 1 2.4705453506430297 10.913811191860578 14.497047964711303 -2 -2 -9
486 2 3.351767967725082 10.950576908895302 17.440686933355092 -2 1 5
347 2 1.7793595601753833 11.607155799970307 14.519786580009029 -2 -2 -9
348 2 3.0292163339167364 11.166625548820706 15.233828788240139 -2 -2 -9
484 1 3.958688820957336 11.40439203740214 16.840836494961962 -2 1 5
178 1 0.03859502661955425 12.600416723903738 14.411710038657313 -3 -5 0
318 2 3.4741889587874923 12.960233285552624 16.495739753302203 4 0 -4
119 2 8.459936412836063 11.465798446596056 17.97313852791874 -4 -1 -3
442 1 6.082862605479033 13.227293322599111 17.261247824958925 -1 -8 3
120 2 8.891721275729443 11.368843550960523 16.614013912424255 -4 -1 -3
118 1 8.836655679639987 10.800187633298515 17.38914604359289 -4 -1 -3
485 2 4.745875349845318 11.940565512978297 17.138603752435664 -2 1 5
391 1 6.542810889277169 9.23688596486941 16.882428476515024 5 1 9
227 2 7.000782547343234 12.657958869235898 15.752830953142492 -1 -2 0
228 2 7.064971268377835 11.902944898094796 14.298674709209477 -1 -2 0
392 2 5.650034849656713 9.611485631744925 16.729603756361993 5 1 9
393 2 7.039343637855332 10.000623689882415 17.201546318401768 5 1 9
226 1 7.542672815305852 12.102352665744375 15.111943689069927 -1 -2 0
552 2 8.935562999166379 12.647560343765088 14.662091737601209 -6 1 0
316 1 3.0554132245297825 13.829735980929172 16.232251891499917 4 0 -4
544 1 0.35221016030401986 13.779333338512652 16.949628855834103 -1 0 4
317 2 3.7250912691936833 14.424124337754053 15.814798931063075 4 0 -4
497 2 2.1206740608632493 17.589222855851954 15.722269682402946 -5 3 -2
556 1 3.5091449979646083 17.25357598539181 14.73284839709699 -1 -3 0
498 2 0.7502317534040789 17.258295000187935 16.210824085927296 -5 3 -2
558 2 3.206702006943604 16.96776368950673 13.801563550273483 -1 -3 0
545 2 1.3533669451368038 13.805874802637094 16.808803719665548 -1 0 4
357 2 3.422870475317994 15.545177596804447 17.642071601648784 -5 -3 -3
356 2 2.6121843794888377 16.901274335372854 17.760710294562365 -5 -3 -3
546 2 0.07876628711655054 14.653552335765193 16.555940343015052 -1 0 4
444 2 6.750456110870736 13.269402181436815 17.958921605497927 -1 -8 3
271 1 8.699429197944765 15.358410840426174 14.887405580142225 4 -4 0
443 2 5.970881660062808 14.105861168653746 16.893914638419215 -1 -8 3
50 2 4.586602095449073 16.149443329894638 15.297216607042477 1 -2 0
49 1 5.24539738118052 15.52905452620776 15.669518050232941 1 -2 0
51 2 6.1069335976214285 15.683057387523558 15.184130655747657 1 -2 0
272 2 8.814872200027779 15.652881619278768 15.831978570643 4 -4 0
562 1 11.340578872709006 1.9813981738150046 3.800505928945183 1 1 0
563 2 10.635832450057348 2.181952255718525 3.0982454778096766 1 1 0
446 2 12.83950752393909 1.3926488132708756 2.8726654627701906 0 3 1
564 2 11.021131052807121 1.1521859058849941 4.235776691156291 1 1 0
569 2 10.089773220573695 1.938529276661955 0.984941081098242 0 -3 6
568 1 9.898195544914893 2.4763254528980676 1.7861663239129058 0 -3 6
177 2 9.534899467489128 3.971472448141698 0.6118346140465022 0 -1 3
126 2 13.025849337060805 1.364397882085703 0.6043938512207614 -1 9 1
98 2 11.550607306221544 3.5054670204020195 4.542279469924496 -1 0 -4
570 2 9.119864095413872 2.0416351453015795 2.200024713330063 0 -3 6
445 1 13.540737860581705 1.121407290622557 2.2077862198635847 0 3 1
447 2 13.608549925152092 0.15716152793238541 2.377491784927133 0 3 1
54 2 14.182986106124936 3.1991846596488567 2.462320482742527 3 0 2
52 1 14.384808403305762 3.8377552296095234 3.127508454936072 3 0 2
349 1 17.057051172698415 0.7770231297841153 3.5353677570367044 -4 3 -1
493 1 16.931450945295783 1.6045456618404872 0.9924244293694725 7 -2 -1
495 2 16.39129019051828 2.4265764953715365 0.7905708710618587 7 -2 -1
350 2 16.96628883177926 1.0863253727162527 2.611090760103131 -4 3 -1
351 2 16.460209582573835 1.2708253255455888 4.122226265517852 -4 3 -1
279 2 15.01690579927853 2.8929463639144535 4.443020984061446 -1 -1 -3
494 2 17.840784837671105 1.8196487259602998 0.6566994723347502 7 -2 -1
150 2 10.284620446406286 5.946880885274763 1.162963398721701 1 1 7
148 1 10.720477587261826 6.6893369210393026 1.638594577669552 1 1 7
149 2 10.105923877775215 6.937453850042013 2.3191912622021715 1 1 7
182 2 12.41083083673302 6.1787507661521195 2.1028756069066006 0 0 5
181 1 13.292832694595056 5.901411070880261 1.8512545423585656 0 0 5
87 2 10.830617335160422 8.452736194683176 0.9142972299591148 1 5 5
280 1 9.412927586957457 7.148754698780929 3.9152089746947865 1 -2 -2
175 1 9.19245124030319 4.865767798708268 0.5395338629684778 0 -1 3
201 2 12.84994462768557 4.951259252768564 0.46680969874264144 1 -1 -4
282 2 9.092281937452821 8.102465090520965 3.964430001680653 1 -2 -2
183 2 13.810545579561154 6.701909265502661 1.4704053249815698 0 0 5
420 2 15.449678661653637 7.6524133827615435 0.41843516076462445 2 -1 2
53 2 13.822269581827511 4.59810961816967 2.8844559715977125 3 0 2
492 2 16.087594896321637 4.705586028480864 2.9047995746274893 -1 1 -4
490 1 16.767673021190255 5.422127247661373 3.0915657110895958 -1 1 -4
418 1 14.477288595392675 7.987025668462618 0.6732496959339573 2 -1 2
515 2 16.87169888981286 6.709511090903212 1.3074609836475168 4 -1 1
491 2 17.714508755333323 5.003292911303791 3.1965793666924736 -1 1 -4
354 2 16.048545661588122 6.090742696323331 4.3311369593845255 1 3 0
514 1 16.71959042529576 6.834258403219603 0.33873939173406126 4 -1 1
516 2 16.297774567845988 5.972145193713434 0.2284808373656162 4 -1 1
249 2 11.26624525079701 10.304330804084563 1.9735661457265388 2 5 4
247 1 11.12363935923451 10.947035320406572 2.7115325806464345 2 5 4
213 2 12.9617422722628 11.633818671647209 3.210621459062043 3 -1 2
248 2 10.422143572652002 10.475639948714623 3.2180179904604373 2 5 4
566 2 10.523796114786602 12.661824259772505 2.0019895172417663 -1 1 -3
85 1 11.14971695924015 9.232224908234565 0.5159577059882346 1 5 5
86 2 10.386412839340233 9.747716991169295 0.13725085897707956 1 5 5
423 2 14.689678162836598 8.981929456133653 2.12366726134641 2 2 6
78 2 17.380533390031395 10.550550354026353 0.3646779873228345 -2 -5 4
531 2 17.890810830956347 9.900569258687629 3.5769806777662523 2 3 3
422 2 14.38144871641952 9.241374360502245 3.6004135783941256 2 2 6
211 1 13.910144733089009 11.880602989178431 3.264066336629979 3 -1 2
7 1 14.855675451262993 13.227442060465807 0.5990728280322526 6 -2 -2
530 2 16.490646756623338 9.251551734525217 3.0601896865382887 2 3 3
220 1 17.27271984513667 12.121884400805833 0.7132589035769512 8 -3 -2
212 2 14.413908908779439 11.057165137978773 3.089704701819229 3 -1 2
421 1 14.997175262826246 9.538608622879908 2.855018319973664 2 2 6
8 2 14.200168496500666 12.97960145219366 1.2497500638389598 6 -2 -2
221 2 16.33344919770046 12.39414986978339 0.9213457736572535 8 -3 -2
529 1 17.50782572000198 9.149236257645201 3.1107337796084247 2 3 3
76 1 17.65336767676278 9.641446069754837 0.11395439469442793 -2 -5 4
77 2 17.319237359448618 9.138042756273105 0.9006839855544462 -2 -5 4
155 2 17.920723631569075 12.27234684618448 2.3381459479832873 -4 -1 0
565 1 10.196738536954266 13.596435113648553 1.7910745568577375 -1 1 -3
567 2 10.842595811997835 13.945020413966208 1.0931145796623327 -1 1 -3
192 2 11.449601945929714 14.320364254678488 3.3215069496698075 2 2 -1
57 2 13.329297715039283 16.117259651551134 3.74479650771246 1 1 -5
191 2 12.7251311727403 13.551924909367889 3.9208123357967843 2 2 -1
190 1 12.15406555350306 14.36060106120702 4.000857347380606 2 2 -1
330 2 9.17381922714164 17.163654817389205 4.298097747024828 -2 -1 1
365 2 12.609618754433434 15.257900155961801 0.18585660356869965 -1 1 0
401 2 8.989540768838154 15.988721654173986 0.13862966558337406 4 3 6
375 2 14.844233977003954 16.340737442802663 0.26355752657862613 -1 7 -1
373 1 14.286874164839881 15.702394303782597 0.7001693395591009 -1 7 -1
342 2 16.752191011044598 17.17804829463533 3.950395508249137 3 -3 -5
374 2 14.275421894754592 15.99581531824115 1.6583218572103942 -1 7 -1
55 1 13.910002136099909 16.612740359904393 3.1474997388773476 1 1 -5
56 2 14.797719792845466 16.53796824903935 3.67073941784987 1 1 -5
340 1 16.411520614641606 16.238451307064416 4.106529525872191 3 -3 -5
9 2 14.764729993010745 14.180205492120312 0.3605781907332909 6 -2 -2
574 1 10.05556872108687 0.792898291169027 7.6085814756419845 -4 8 5
121 1 12.449210421911161 3.312681640612004 7.664351555013242 1 3 0
122 2 13.162258683371741 2.6694773449636995 7.463601551635061 1 3 0
123 2 12.064036590694501 3.5789242070668825 6.853134716154944 1 3 0
576 2 10.65246189903172 1.0906122671302314 8.22556231078792 -4 8 5
99 2 10.36433987330084 4.054046420373063 5.250880072614912 -1 0 -4
97 1 11.318203782692027 4.124610289922643 5.257093980147362 -1 0 -4
416 2 10.160194664880134 0.2016624411624287 6.003027167691879 0 -1 4
519 2 13.362582787292554 0.4076690235421622 6.745804699402729 -6 4 4
415 1 10.339288283872353 -0.2357961802195859 5.114531491917028 0 -1 4
575 2 9.325880870005312 1.4629417879185225 7.580904686764739 -4 8 5
237 2 17.23459996769454 3.848589899922825 6.773353677640214 -2 -5 -3
146 2 14.286935111330221 0.8675560775202564 8.865242694539225 -5 -4 -2
257 2 16.782071443204465 2.332276720347786 8.521299372266679 8 1 -1
517 1 13.876518138782984 1.2199486737127248 6.954723847888649 -6 4 4
277 1 15.451208711735012 2.257012545299876 5.081986437031196 -1 -1 -3
278 2 15.698727934417457 2.7983709323187282 5.837600576138081 -1 -1 -3
518 2 14.382369768878911 1.4157513827754002 6.106588463115727 -6 4 4
235 1 16.415586155298893 3.5495487664807253 7.262235110264547 -2 -5 -3
256 1 17.104995159966084 1.5700751619888325 9.079321956173256 8 1 -1
242 2 9.347677170997507 5.53063591841374 8.456522431811026 4 5 3
413 2 11.617929191202027 5.955103339226029 8.912783160970687 4 4 -3
440 2 10.780832873773802 7.014235212595668 4.660562057551895 -8 5 0
36 2 12.889679842013347 7.699401647881288 4.843353788023787 0 3 -2
441 2 11.604226469034206 5.773575587610674 5.047981587792271 -8 5 0
43 1 10.413844869739627 6.704009096431365 7.821312880664623 -4 -2 3
439 1 11.588912831291783 6.722110136127025 5.235852951092571 -8 5 0
44 2 10.60404925961041 6.6635539793023115 6.884266689707751 -4 -2 3
45 2 10.210999933332815 7.706022717520044 8.051123809891402 -4 -2 3
414 2 12.415495906171694 4.668521092778431 8.657799120838737 4 4 -3
470 2 13.178430589971478 8.376076431233862 6.635550970513802 0 3 -3
34 1 13.66072276857735 8.367400565223287 4.855177365633351 0 3 -2
236 2 15.812139450641416 4.309382644560996 7.388529124818332 -2 -5 -3
559 1 15.67375365182752 8.581279894967258 8.397225291276925 1 -1 -4
35 2 14.456758632617792 7.825224652508014 4.8417016499067635 0 3 -2
465 2 15.081991429702123 6.7547780276253295 8.123707887130408 5 3 -1
463 1 14.882409008214353 5.911982184804978 7.754986108335515 5 3 -1
352 1 15.721581034331715 6.672319639549788 5.021850992028273 1 3 0
353 2 15.561261549361603 6.229243232662653 5.87180801526387 1 3 0
464 2 13.951046338296065 5.688253172731155 7.9511581553963255 5 3 -1
215 2 16.891928185763508 7.941808654441468 5.4726895196204675 0 0 1
561 2 16.32592729279005 8.587118980776934 7.642431778990717 1 -1 -4
214 1 17.264793918495922 8.472775773384873 6.256252107324393 0 0 1
471 2 14.15323171690825 8.714855440381907 7.794480297847446 0 3 -3
231 2 11.816395853591331 9.208111196058725 8.342155860785631 -6 -2 -3
230 2 10.498083791186927 9.981355003106735 7.876170295354137 -6 -2 -3
276 2 10.054489027253114 11.754015655575248 6.3820737426394905 7 4 -1
274 1 9.351209856197363 11.084462475511188 6.594713513785445 7 4 -1
314 2 12.662165051694865 11.971571985740486 7.119298911516594 1 1 3
229 1 10.82165258833666 9.327629544850952 8.49375452593921 -6 -2 -3
532 1 11.301544158873885 12.971634035039202 6.371789755819428 3 4 2
469 1 13.212120054858424 8.772104872413538 7.561960976248766 0 3 -3
23 2 14.74353157588332 12.47279031119006 4.6505968022086535 0 1 -3
315 2 13.485825284200574 10.587129508434066 7.143164048654408 1 1 3
313 1 13.552009203309495 11.571467448505096 7.311463621863779 1 1 3
22 1 15.125024446160772 12.800342212524699 5.516384907211157 0 1 -3
216 2 17.507243724695932 9.354054970129603 5.900886598190123 0 0 1
431 2 16.715490258481182 11.867555145567037 5.814498104197729 3 7 2
24 2 14.424446620198696 12.517949850561735 6.189765928917701 0 1 -3
430 1 17.579761103424534 11.465829246488079 6.027539986550917 3 7 2
246 2 13.627742366911459 11.855520680651066 9.067241530065493 0 -1 -7
116 2 9.073379938122672 17.25715113684071 8.071856646955561 1 -4 -2