LAMMPS data file via write_data, version 8 Apr 2021, timestep = 4570000

972 atoms
2 atom types

0.1722958490966545 19.818757150896854 xlo xhi
0.10468390934453342 19.886369090667003 ylo yhi
0.05744186569073834 20.74333013433015 zlo zhi
-0.06065408072265609 -0.19905182206812425 -0.03918553783616949 xy xz yz

Masses

1 16
2 2

Atoms # atomic

2 2 3.6265893282543287 2.585575089454466 0.3592915294524998 0 0 0
4 1 4.092764299376004 0.985559506248436 2.898493918024036 0 0 0
5 2 4.298159326466599 1.9662463674285071 2.855518339908942 0 0 0
401 2 18.014776856161685 0.8508853398731651 9.64503101344577 0 0 0
7 1 6.092668642551382 4.117662729154388 5.8042017244531285 0 0 0
8 2 6.874058986376171 4.27898488759002 5.200398960992762 0 0 0
9 2 5.350481952445008 3.9927514242523032 5.0941301752173835 0 0 0
10 1 1.393008400457901 4.214280072268403 3.6773897847923753 0 0 0
12 2 1.2647495210349269 4.936962304272732 3.0992163603109497 0 0 0
13 1 4.6357352578910564 5.606092773783515 1.5959091396688512 0 0 0
14 2 4.439169004269621 6.515935453825537 1.9628694189435718 0 0 0
16 1 4.209602615152086 3.8113252445698116 3.775061796827931 0 0 0
17 2 4.498351609636532 4.406030011703651 3.0597460743800133 0 0 0
18 2 3.245849104571723 4.018966025315099 3.8353729533742804 0 0 0
24 2 2.5203818397028677 1.3089731909206441 5.791673717355465 0 0 0
25 1 2.81606240463836 5.194740871853456 6.63280390636481 0 0 0
26 2 2.504691990443264 5.986188012899487 6.100624585613591 0 0 0
27 2 3.5001712348691365 5.511804744126067 7.194795112340711 0 0 0
178 1 12.130662709171817 9.142407953772805 0.3244462062136756 0 0 0
19 1 0.8196337564394061 5.944184612335881 1.6064089958843484 0 0 0
35 2 6.273881720519401 2.489946407592693 1.034724849169671 0 0 0
46 1 7.636818739260598 4.35251584930723 3.818709924726133 0 0 0
48 2 7.495914010978933 5.035995789910148 3.149851202752808 0 0 0
55 1 7.369414866297918 5.88092277778207 1.743819797523494 0 0 0
56 2 7.66201108917939 6.82834455440351 2.0098837894864783 0 0 0
57 2 6.413863377936295 5.856751484958713 1.5041999035991975 0 0 0
63 2 8.602072865714403 5.8246781646614805 7.305084471238577 0 0 0
67 1 7.521292498938514 2.146401511997779 2.1119095862769397 0 0 0
68 2 7.696865745224174 2.8388866994922437 2.757140561287135 0 0 0
69 2 8.329363402336286 2.2663738945794467 1.5006353582755836 0 0 0
112 1 3.9159927391682205 7.7568941801754 3.0609891681439048 0 0 0
113 2 4.4531434236810545 7.403902572954105 3.772911856734346 0 0 0
114 2 4.075238168156432 8.74775142762031 2.9600731645110234 0 0 0
130 1 2.0417543323506946 7.421952401284828 5.2053338406229175 0 0 0
131 2 2.6027129588393345 7.5079742628312856 4.371112155966206 0 0 0
132 2 2.180619631186398 8.277873994259362 5.655460219726146 0 0 0
136 1 5.894476425667046 6.988688955883996 5.15684701517276 0 0 0
137 2 5.926242853075167 6.0436956766097625 5.48509405175558 0 0 0
138 2 6.799213229875116 7.0720017767039565 4.8345065050096965 0 0 0
166 1 8.507775304806366 7.36717924972878 4.94375602207051 0 0 0
167 2 8.69460957153825 8.079169836014653 5.536588897458264 0 0 0
175 1 7.506866509949934 8.682508760489684 1.9973297711023943 0 0 0
177 2 6.572892314526974 8.756571791579498 1.5454183711749407 0 0 0
6 2 3.230575938102348 0.7892763285273481 3.2815117681430133 0 0 0
325 1 2.802532546271641 2.3540733631897184 7.126610120794696 0 0 0
326 2 2.777449836742017 3.3286495151199786 6.856038073909439 0 0 0
327 2 3.7672112940075158 2.2555111239831724 7.319099485970479 0 0 0
337 1 4.612057839158078 5.857540751503143 8.493352479214959 0 0 0
338 2 4.4128004152811435 5.11054748313962 9.11310570943475 0 0 0
339 2 4.380345111196947 6.639392124291317 8.993940759908842 0 0 0
502 1 11.685149395719481 9.19064249212911 7.261243574726925 0 0 0
51 2 10.363582177115699 5.899189994082971 1.1290682139724162 0 0 0
345 2 1.4667720861604425 5.7003010381617925 8.12765552131589 0 0 0
357 2 1.6451039689010512 1.9378418691886012 8.511639825681902 0 0 0
358 1 5.564439073255742 2.1386315837467205 7.330543609684173 0 0 0
359 2 5.86220044362691 2.8801687259813136 6.676437503461915 0 0 0
360 2 5.9221031233029775 1.3582734731014248 6.8395337011627095 0 0 0
363 2 8.528697415560988 2.6666973613733287 8.046662630912502 0 0 0
379 1 7.272124123340711 5.923304199648 8.46846783868214 0 0 0
380 2 6.9950268564957705 6.816262433049522 8.762538425339072 0 0 0
381 2 6.487298083764587 5.5011273064423625 7.972208646278974 0 0 0
391 1 7.495894638790121 2.1327533778674135 9.35475333361777 0 0 0
393 2 6.6622373660594745 2.1707452826563127 8.82039118310239 0 0 0
467 2 5.344334475810683 8.041785551563517 6.392223902367528 0 0 0
499 1 7.152464469389877 8.58446580404012 8.962562901481887 0 0 0
11 2 0.9764782352565249 4.559307114048081 4.520784005181594 0 0 0
38 2 10.090007611143687 2.690227200964259 0.14220790446676906 0 0 0
504 2 12.071408282198657 8.683806748273252 8.010147125881993 0 0 0
473 2 10.506721098640739 7.3950451676319044 9.696974065748291 0 0 0
15 2 4.172783601045015 5.533261638299266 0.7165882675751265 0 0 0
59 2 9.406166598767268 1.0613839438489183 4.422778505773592 0 0 0
362 2 8.97756276206177 2.21304907469156 6.590221152342475 0 0 0
466 1 5.245290377698182 8.899902641381399 6.885279528866647 0 0 0
675 2 1.9688813051782077 5.711051095473825 0.17322439812554738 0 0 0
111 2 1.9524039094419552 8.916387451912145 0.7270928861569755 0 0 0
33 2 1.146563048036358 2.708838750859745 2.728143505783205 0 0 0
505 1 15.16027380799598 9.609842991908419 7.336565117611177 0 0 0
64 1 12.429703750439886 0.6910566705470319 5.47755894916378 0 0 0
47 2 8.61496581188215 4.346844296441379 3.9855453747516685 0 0 0
463 1 0.3862702828023944 8.700444284232878 8.9815645368849 0 0 0
522 2 16.94469921434868 9.50994640601222 10.252880047077076 0 0 0
147 2 8.873405213430384 9.061500880471918 0.8991726234156943 0 0 0
392 2 7.387973220369083 2.873604491693105 9.989799004386656 0 0 0
435 2 1.7121961104600272 9.20165933773162 7.82934502627794 0 0 0
77 2 17.514919134387508 0.764975327786716 2.4068965224749035 0 0 0
145 1 9.459194964378431 9.35335755146859 0.18975562760648412 0 0 0
106 1 18.613277374649247 2.3728346524505657 0.3899748424553293 0 0 0
633 2 14.248403483796508 0.48867967166129045 8.378171161311673 0 0 0
372 2 7.4184039607597105 4.886507792551825 9.922683785125951 0 0 0
747 2 14.828559478184031 5.581352493971695 0.40431198054754214 0 0 0
469 1 8.977706426778408 9.367358262724569 6.872045231977013 0 0 0
365 2 10.632102849259093 1.2048393708267304 9.392376686373906 0 0 0
28 1 6.025329766875396 0.3185439661820071 4.802143752287214 0 0 0
406 1 14.32471048223765 4.470162515413545 10.33647254310999 0 0 0
42 2 11.079716761966727 0.6850726944989206 2.720388291063113 0 0 0
61 1 9.35182163549229 5.516300449340025 6.720888390157078 0 0 0
343 1 0.9064813342047775 6.079599686443666 8.776672901689796 0 0 0
31 1 0.9530657458057473 1.9642276023272491 2.1459777640186113 0 0 0
501 2 6.223397427145165 8.768834467979795 8.734653912975002 0 0 0
62 2 9.3476415952779 4.535253273585528 6.785622611696872 0 0 0
32 2 0.15426825496524754 2.318855811121666 1.7187429248079111 0 0 0
3 2 2.1473280343756573 2.310972133076922 1.0232538154224948 0 0 0
139 1 0.7352647569361734 8.766420689502482 1.7825836016640335 0 0 0
74 2 16.677905248814614 2.2058393861748335 0.1047790982041417 0 0 0
210 2 0.3391219124599673 7.529377629354582 5.204701615123047 0 0 0
465 2 0.5479309999326222 7.7505653578674 8.81555904632466 0 0 0
355 1 0.8644465475953095 1.652141593559667 8.969511080289967 0 0 0
20 2 0.9815117987032403 6.883554716595222 1.8300085565574737 0 0 0
95 2 15.728105590579496 0.47149160125843503 5.476536886981159 0 0 0
168 2 8.822538588858968 6.564506303994311 5.426199500637136 0 0 0
214 1 18.44461561829338 9.339046302603535 0.16313434013062728 0 0 0
436 1 4.188352836331918 7.962873197613301 10.031902823993404 0 0 0
356 2 0.9449764547527706 0.722515558723984 8.764219441204798 0 0 0
150 2 9.612820513132041 7.84353867971101 3.8126838749063143 0 0 0
361 1 9.154628098492916 2.8971144305539402 7.267310835971103 0 0 0
471 2 8.311459566168178 9.149910309838885 7.5947435514885315 0 0 0
503 2 10.719148567692313 9.275603740260738 7.313122032683976 0 0 0
141 2 19.537870703284913 9.016116456479732 1.3501840553947462 -1 0 0
140 2 0.9081912380567341 9.514475545262364 2.391098127006903 0 0 0
344 2 0.9763603553897809 5.545473744225095 9.557786356270787 0 0 0
22 1 2.296913089685009 0.6884582948268753 5.068378424376792 0 0 0
149 2 10.6505152111803 7.629980017281358 2.72924582668785 0 0 0
52 1 10.305092652038212 4.113478824722564 3.710912971195006 0 0 0
34 1 5.568134663428497 2.6305745728407293 0.3936495698163403 0 0 0
60 2 7.908985348685983 0.9254728214743567 4.927776535818304 0 0 0
102 2 18.522639456845457 0.9617822157076791 4.381788976274737 0 0 0
472 1 10.473147659807191 8.090001813931886 10.374967781033629 0 0 0
54 2 10.515571847547905 3.112276521963443 3.720719105615245 0 0 0
212 2 14.884502348102913 8.951908732956259 1.3437632401856283 0 0 0
509 2 17.24346951199848 7.308134874910212 9.80773696050704 0 0 0
148 1 10.342413720650354 8.239807878998885 3.390545991811286 0 0 0
211 1 14.145067302163891 8.71940618586177 1.91084764531167 0 0 0
75 2 15.278633540464849 2.461389365637673 0.8701183689337211 0 0 0
329 2 4.754220624024142 0.8223353925778201 9.499342388609765 0 0 0
408 2 14.243080603990268 3.5762791646328185 9.963360614721621 0 0 0
79 1 19.198375872743355 4.705634851755565 5.552233537677302 0 0 0
432 2 19.273110296863077 2.072707032046236 7.785190119080311 0 0 0
540 2 17.084470846560766 9.180283548505278 7.15690079297376 0 0 0
86 2 16.880622784204455 5.839951392773953 0.9781598600651471 0 0 0
162 2 10.84358265770354 9.881146979388557 3.354345669334224 0 0 0
58 1 8.824942836158925 0.9493121506452589 5.166844782852943 0 0 0
535 1 13.539240846571024 8.65849708311142 9.373704981492367 0 0 0
431 2 19.023028231291207 3.174811262901497 6.769397048411964 0 0 0
537 2 13.696749598309616 7.7063607894092065 9.186451748582547 0 0 0
41 2 11.392006851175687 1.0019073267264735 4.234385039735445 0 0 0
40 1 10.860317894736061 1.272074649031396 3.4359887085083076 0 0 0
328 1 4.576967449436452 1.4612778980038836 10.192380799965647 0 0 0
506 2 15.009685143506276 9.098424869206845 6.479702339556041 0 0 0
43 1 12.44229177293575 4.778677881865076 5.59004079185212 0 0 0
44 2 12.488734869096678 5.778091350033052 5.57077743790927 0 0 0
45 2 12.368293074625322 4.499648505530617 6.526722359823492 0 0 0
49 1 11.133223806955613 5.9665949202559325 1.7796182258887767 0 0 0
50 2 10.920033224054732 5.28387689081375 2.4782529651686085 0 0 0
53 2 10.943829057837046 4.482665992613906 4.409631365294539 0 0 0
70 1 11.72785267392572 2.951767050566017 0.5826144506275188 0 0 0
71 2 12.471546418775901 2.8761279954374963 1.1806011316325122 0 0 0
539 2 18.345397922671832 8.388968865767238 6.510579873089764 0 0 0
76 1 17.325949807202182 1.3777211362081636 3.1630745681431405 0 0 0
78 2 17.563346713483615 2.325765216952812 2.9990456775719636 0 0 0
80 2 18.631693181233306 4.293675040208172 4.893964634081525 0 0 0
94 1 15.307624286943959 1.0284214305178654 4.854324021709008 0 0 0
82 1 14.790652545402256 4.203279332337456 3.9124570459289645 0 0 0
83 2 14.186298136259339 4.2125295419479345 4.698040334482167 0 0 0
84 2 14.344162592636613 4.848571503532448 3.3043424692200225 0 0 0
85 1 17.70117235520485 6.000405662483857 1.572123285907362 0 0 0
87 2 17.410130470969772 6.720062601020231 2.1674158258592406 0 0 0
88 1 17.601965537874417 4.066524465498378 3.395050609538438 0 0 0
89 2 17.9035908169114 4.826004310067478 2.929114897210222 0 0 0
90 2 16.680047232702183 4.179086927541799 3.7001546107611674 0 0 0
91 1 13.875253606673544 6.007940572462963 1.912885902830385 0 0 0
92 2 14.162498847978013 6.950666886880955 2.0824927986607378 0 0 0
93 2 12.940689838512592 6.1106584808866 1.664143457660878 0 0 0
97 1 16.06702748236496 5.3554827766827495 6.573182817808143 0 0 0
98 2 16.710571250917916 5.659974316168014 7.218858310131579 0 0 0
99 2 16.028063732958977 4.348548810123781 6.535753738778119 0 0 0
103 1 13.964130735119523 1.9958563614448943 1.9859137507135611 0 0 0
104 2 14.212236820420012 2.495993167681727 2.794754139450389 0 0 0
105 2 13.896282901607217 1.018677938507876 2.1262694005173364 0 0 0
536 2 14.068651364661847 8.936805689833216 8.624269228611206 0 0 0
1 1 2.627814487321837 2.4764281269870363 0.21940251701553234 0 0 0
468 2 4.363026865319293 9.090150024346759 7.243144988340223 0 0 0
172 1 12.606047813669877 7.624579823450987 5.07867252997487 0 0 0
173 2 12.262895825153874 8.193594964897343 5.811033501997756 0 0 0
174 2 11.89094645624691 7.675286295704332 4.438593793042342 0 0 0
184 1 17.56449627913535 8.169609333511264 3.316809883100958 0 0 0
185 2 17.579790990130395 9.124881959093592 3.1140668210333695 0 0 0
186 2 16.73156483177969 8.016244697167055 3.8242742140902766 0 0 0
202 1 15.370837195995081 7.467667600147111 4.8997617711549815 0 0 0
203 2 14.39210572832998 7.4584201624927395 4.888211145474752 0 0 0
204 2 15.638884865776111 6.682492625705165 5.458364150043891 0 0 0
100 1 19.121858578151556 0.6600334936785514 5.106263767198364 0 0 0
209 2 18.587567408491854 7.742387935969074 4.454514606008497 0 0 0
213 2 13.313611771226267 8.932194386875858 1.381387431108652 0 0 0
373 1 10.970162036349345 5.940293258826485 8.90069931240614 0 0 0
375 2 11.959067478483972 6.088772179796035 8.739358899311894 0 0 0
394 1 11.903156917082574 2.683212616633464 7.379614022403783 0 0 0
395 2 10.958058936992293 2.6255634058098756 7.608337295724088 0 0 0
396 2 12.074895608583008 2.0212913422923724 6.675687262800032 0 0 0
397 1 15.858420945164328 2.8601558002056606 6.769108257207266 0 0 0
398 2 16.801883129446725 2.5432515299214264 7.0265130906323385 0 0 0
399 2 15.54410884308894 2.2480833441549404 5.996405792370658 0 0 0
538 1 18.0516605441732 9.163602983228438 7.09261802035108 0 0 0
409 1 17.72638799384985 5.6315010570802215 8.696388269972925 0 0 0
410 2 17.394995498760114 4.948399894819975 9.241485061911764 0 0 0
411 2 18.66682467573012 5.546568713645209 8.669268768159624 0 0 0
415 1 13.723580177431653 6.1834884646219255 8.500187050500772 0 0 0
416 2 14.145243459435003 5.900022493618505 7.700405532702234 0 0 0
427 1 14.061044197807856 2.3927185875479586 8.860093551659414 0 0 0
428 2 13.148127875777606 2.4841371198532585 8.495971665269934 0 0 0
429 2 14.586838948717336 2.6681574088255937 8.08491881359059 0 0 0
430 1 18.554934986454466 2.4267932998796606 7.200440536642558 0 0 0
417 2 14.072974327664042 5.523743036514095 9.249579028823819 0 0 0
96 2 16.002291201982693 1.1564412480765802 4.194107740166508 0 0 0
433 1 2.327380981359199 9.416252664795511 7.100004418185256 0 0 0
464 2 19.26099802645117 8.928837936591892 8.431007968689403 -1 0 0
374 2 10.544573758051635 5.772179129691611 8.059113073253487 0 0 0
66 2 13.22587003892158 0.5246391856314183 4.896081412814385 0 0 0
272 2 7.418927982241025 0.3779073351092357 1.9881385843009194 0 0 0
101 2 18.710726521299765 1.1197014142927135 5.846987259037207 0 0 0
29 2 5.250200543805666 0.5763439600789484 4.280413079205252 0 0 0
208 1 19.012164169261847 7.3398786159633 5.2635211025677755 0 0 0
23 2 1.3609283908260494 0.7620860967755134 4.956836384304371 0 0 0
81 2 19.02041144344803 5.673492340534424 5.460888880274078 0 0 0
21 2 19.613543926244585 5.995852078682215 1.1761966744477246 0 0 0
176 2 7.655983125058504 9.262215211850208 2.7595310536380295 0 0 0
378 2 10.464576679446278 4.840186459060148 10.28451711602968 0 0 0
236 2 0.9614470609620435 0.19193941170532847 1.930088308461511 0 0 0
142 1 5.3997021666324 9.134673177672283 0.5004059292930869 0 0 0
437 2 4.085523534651073 8.922845922849904 10.125689023441813 0 0 0
143 2 4.4034270469273125 9.103783648303867 0.4576671189653829 0 0 0
180 2 11.131119772215403 9.056574922727018 0.4592443333589881 0 0 0
596 2 7.715243853278639 0.19727335913727528 8.815881746248193 0 0 0
500 2 7.430726471615356 9.100234697596443 9.699378486937125 0 0 0
364 1 10.681534683046875 1.490205329241301 10.32128229067272 0 0 0
73 1 15.809974183351182 2.7131079698519214 0.1164899679309169 0 0 0
710 2 8.490841481010632 5.8024776095716355 0.5460495761219354 0 0 1
191 2 14.187632106065031 9.80680324833198 3.0138776684357067 0 0 0
400 1 17.730362070128344 1.500597879150745 10.32897508188559 0 0 0
109 1 2.6221008179549368 9.241984793803667 0.10581271614688412 0 0 0
342 2 4.223953833259936 3.1583108863011122 10.361964010684389 0 0 0
366 2 10.560917588558118 2.4594411959773232 10.346316490698776 0 0 0
107 2 18.85751335729605 3.253721029717086 0.06732692743554472 0 0 1
331 1 5.565198891120342 4.620193311854469 12.771316610886192 0 0 0
332 2 6.378246253876405 4.7382067021629775 12.21195329151356 0 0 0
333 2 4.937444700757653 4.333438052619242 11.987505234464228 0 0 0
330 2 5.263229674865737 1.316831754574483 10.916180734851775 0 0 0
348 2 2.598909802285928 1.4466896035784393 12.455869612903001 0 0 0
349 1 2.5609140197230174 5.37203384798863 14.098260147442112 0 0 0
350 2 2.6752615093319463 6.078730207407631 13.458631406723855 0 0 0
351 2 2.833178078637304 4.4918872938207866 13.74608525474352 0 0 0
656 2 6.1323953649926395 5.690585716593103 19.33980703257593 0 0 0
387 2 8.2954967161609 5.566536980572462 14.468828341821329 0 0 0
454 1 2.1278860016911603 7.381181611827841 12.467457400044951 0 0 0
456 2 2.260159078823193 8.158540517519917 13.07824044758938 0 0 0
460 1 5.378284356638814 7.289373833522991 12.405423122234964 0 0 0
461 2 5.4631502112470685 6.343171801737995 12.565982756713208 0 0 0
462 2 6.33110974636237 7.439597071960904 12.284125084452207 0 0 0
490 1 8.364674180957547 7.641767351025349 12.05288120734267 0 0 0
491 2 8.765796433959625 6.822925926906308 12.531144222763519 0 0 0
649 1 2.921909916807623 2.471929741339592 13.836251009797286 0 0 0
650 2 3.8363748774111484 2.3342069021022818 14.162155409315115 0 0 0
651 2 2.2711169565946467 2.3506764745098767 14.57752250121288 0 0 0
652 1 4.294784106196509 1.4165559216308656 17.10167342174845 0 0 0
653 2 4.4022293392165555 2.3393606565758893 17.064812440524747 0 0 0
654 2 4.892079488127206 1.0382085789174715 17.80006131768722 0 0 0
655 1 6.198816912673639 4.70043590042623 19.371442875580108 0 0 0
657 2 7.011705608055451 4.450938168228021 18.935436896113206 0 0 0
658 1 1.2485083919485827 4.042139127345434 17.936149786757134 0 0 0
659 2 1.2631816573009425 3.2116555033616714 17.456446302914863 0 0 0
660 2 0.9481792264089717 4.613058520783753 17.193896206795085 0 0 0
661 1 4.595121199802535 6.129049540059466 15.625975568166512 0 0 0
662 2 4.418034487891319 5.600192074033138 16.46672033963925 0 0 0
663 2 3.9164688190051007 5.837053484998545 14.985448453225576 0 0 0
664 1 4.198004080531134 4.236235439815552 17.51371952179328 0 0 0
665 2 3.3065812413494085 4.077648249648501 17.866039355186825 0 0 0
666 2 4.7350800841843235 4.496452851894379 18.275361481264586 0 0 0
669 2 1.4674706342712838 5.7247341068232735 15.18254633891758 0 0 0
671 2 2.401496995814653 1.7236563428330611 19.490653717173846 0 0 0
682 1 5.531425340778297 2.6175975038125783 14.396224917543352 0 0 0
683 2 5.692634003807925 3.436598490461619 13.950855113803986 0 0 0
684 2 5.704981612831854 1.9594502688460325 13.602940728292378 0 0 0
694 1 8.116444822383286 4.29653853363984 17.454674160450736 0 0 0
695 2 9.099955797148716 4.197053522866159 17.595622129416476 0 0 0
696 2 7.863327743021462 3.4022672173280113 17.085638241900288 0 0 0
703 1 7.262393066265038 6.024482625512616 15.601269935881115 0 0 0
704 2 7.621432360973919 5.448263150707591 16.3681921527613 0 0 0
705 2 6.33010818355533 5.898861699547443 15.52516982937766 0 0 0
715 1 7.571047409277238 1.925655747678738 16.145692246090345 0 0 0
716 2 6.880335040279223 2.2199405763643925 15.578850160895296 0 0 0
717 2 8.387866773447486 1.9923090862115465 15.595588447640731 0 0 0
353 2 6.924973065733098 0.9791843635108712 12.3980051511724 0 0 0
760 1 4.0804536813403605 8.188002757564306 17.18696793384903 0 0 0
761 2 4.0143488877950375 7.523895289116547 16.47271500952176 0 0 0
762 2 4.884231507655393 8.02379604620959 17.674041337077746 0 0 0
778 1 2.0434629615096846 7.5774685084368025 18.670699445769344 0 0 0
779 2 2.7732391230478775 7.842931580314458 18.016742696835 0 0 0
780 2 2.283283435587084 6.668960789737074 19.0211526499188 0 0 0
784 1 5.9036150588492715 7.417626747670169 19.21836153965042 0 0 0
786 2 6.792267397174363 7.536108665330958 18.854394825739373 0 0 0
791 2 5.032876323788474 8.7861590096485 13.665772758935407 0 0 0
825 2 6.503887877735182 9.048668830356839 15.315318101632515 0 0 0
814 1 8.545352238348809 7.640637652568259 19.017505176869786 0 0 0
815 2 8.777927425709759 8.332195909997104 19.695966099628638 0 0 0
816 2 8.653051170996466 6.748805930254861 19.392434500558608 0 0 0
823 1 7.3347811169766794 8.659565476988602 15.720980813610733 0 0 0
824 2 7.258235010991485 7.691822025674367 15.701319312207684 0 0 0
389 2 13.835544688722008 1.1156321136787382 11.625570079626634 0 0 0
804 2 7.456709572795937 9.872459383922537 16.999744022547347 0 0 0
678 2 6.865244848125266 0.9939934200119097 18.94435200395373 0 0 0
708 2 8.77090406171355 0.33735575923904193 19.222570409165318 0 0 0
744 2 15.641182019592195 1.2587983900550812 18.14129701866247 0 0 0
144 2 5.500105006299018 9.842828737501957 20.618863249974662 0 0 0
750 2 18.50301193779175 1.2164681340892982 18.390245231481646 0 0 0
492 2 8.583490827032334 8.325390229552948 12.75008730779072 0 0 0
701 2 10.831429109143878 4.669018747712208 16.691304827672795 0 0 0
377 2 10.997967164433076 4.299697444191816 11.572653311589525 0 0 0
384 2 9.315733357956159 0.9678439988837033 11.350213334984673 0 0 0
788 2 19.532074449822026 8.914540680222057 15.568175654712675 0 0 0
728 2 19.43787156759933 4.5334981338229 18.95525804619771 -1 0 0
789 2 1.4058505163666115 8.876993661898418 15.48942764885469 0 0 0
528 2 15.72758769391917 7.407374412496137 11.388931936278915 0 0 0
385 1 8.993477997587688 5.201986262665765 13.817148782923232 0 0 0
534 2 18.925975361058626 6.252739469727517 12.561393993319646 0 0 0
826 1 11.743718111101519 9.110581774982444 14.28479524795125 0 0 0
676 1 5.90444244279923 0.9695174148166774 19.03788798026616 0 0 0
414 2 16.072690760124413 4.311409058641376 10.801857322000057 0 0 0
790 1 5.11644405853739 9.476787873970736 14.361087357751613 0 0 0
822 2 12.41353282710308 7.905582829785607 19.97696287991731 0 0 0
352 1 5.937477169442341 0.8321330421429736 12.403787716508898 0 0 0
785 2 5.826224697037062 8.097079548849504 19.93827932961031 0 0 0
670 1 2.2719849270428285 1.154828862716295 18.653034717591723 0 0 0
714 2 13.099558835970644 1.184402544872213 19.004173307835774 0 0 0
510 2 17.884137287059968 7.6255922997045245 11.267153460392805 0 0 0
672 2 3.009330904420335 1.3073780445257634 18.078806858763016 0 0 0
424 1 19.306794504947582 0.8512109454517298 12.675399375830182 0 0 0
795 2 8.719121667548798 9.246619715221742 14.617669717755316 0 0 0
726 2 17.53128109321683 1.415874988863608 16.40385621793119 0 0 0
681 2 0.8035931218745871 1.346909176548618 16.146185488223182 0 0 0
370 1 7.47457367146434 4.287151836952904 10.731227505405727 0 0 0
336 2 0.36549583895701415 4.072349107189574 11.779902272735036 0 0 0
667 1 0.8709209264349321 6.103665408517017 15.901398379550185 0 0 0
793 1 8.988779095417842 9.511723788418776 13.723902095639193 0 0 0
707 2 9.150194664198402 1.3075546377924843 18.044217486002402 0 0 0
386 2 9.075000903280491 4.2379102668655975 14.020773543032746 0 0 0
846 2 17.11073578471381 9.629050281899184 17.308402748712737 0 0 0
388 1 12.881056745005113 1.1419523700992995 11.897759824133768 0 0 0
702 2 10.636383227116136 3.060313509845135 17.04576218387141 0 0 0
798 2 9.642604914946398 7.822807950208665 17.88226106378468 0 0 0
685 1 9.26612657426423 2.4362468139031703 14.160307857269796 0 0 0
108 2 18.772357417707095 1.762147630045661 20.401391871620923 0 0 0
674 2 2.303992228660927 4.498792378041615 19.81940806141582 0 0 0
508 1 17.120957657644297 7.804839849348227 10.661485514726413 0 0 0
679 1 0.8821353487900824 2.30294840099492 15.910641935685561 0 0 0
668 2 1.0901475110047347 7.016271062013815 16.12628024791558 0 0 0
402 2 16.938095689608843 1.1415056346954238 10.718905647815099 0 0 0
687 2 8.86062535732459 2.077082118804194 13.36731339913643 0 0 0
787 1 0.647828524372503 8.701235771887914 16.12131818334221 0 0 0
382 1 8.649213271117688 0.8944182516255517 12.001772863312919 0 0 0
692 2 12.458949425098917 5.534717438161564 19.553826023849798 0 0 0
858 2 0.3506151507342168 7.4751762436599245 18.93815781054746 0 0 0
680 2 19.647025058751662 2.591471117768048 15.58320754826482 -1 0 0
216 2 18.579800385956208 8.529701540066805 20.302907864802368 0 0 0
686 2 10.23947610788414 2.432221020550275 14.113981318882935 0 0 0
39 2 8.773545136913581 2.4016226207950395 19.792917601875182 0 0 0
856 1 19.018689317852076 7.369218343103476 19.146663127758313 0 0 0
749 2 0.4178186168599922 0.9844518997069623 18.715738488187544 0 0 0
404 2 18.73947391366326 3.9948245648187406 13.470665272727901 0 0 0
403 1 18.9099622041458 4.53485545569226 12.710802918518084 0 0 0
757 1 2.3893927954301537 9.489235751576631 14.125655225152093 0 0 0
183 2 15.49581698371775 9.088684668001264 19.84047841016171 0 0 0
758 2 3.3647163210683373 9.503858008498316 14.377116577567211 0 0 0
698 2 10.778539856417575 6.788237602017748 16.1025317979119 0 0 0
181 1 15.643932386894605 9.688694703619936 20.5698822964109 0 0 -1
335 2 0.9069149412565276 2.8975195472387467 10.61971042938955 0 0 0
347 2 2.758511207265789 1.1012211106486713 10.96418571266419 0 0 0
341 2 2.8385575947620665 3.7750834131847766 10.77946613188627 0 0 0
862 1 18.25534809456911 9.118341457280026 14.21615591852028 0 0 0
455 2 2.628388181385421 7.454802917963418 11.561801236183943 0 0 0
746 2 15.5162143351235 4.384966021654304 20.37833786722173 0 0 0
796 1 10.40637419594573 7.956251882570396 17.222612304796197 0 0 0
110 2 2.4223815133319797 8.456876399896592 20.181684315693758 0 0 0
179 2 11.924490282129165 9.955301438465357 20.47726851237948 0 0 0
830 2 16.621928486171175 8.986206454382792 14.133040112386732 0 0 0
498 2 11.807154767940435 7.866859938517108 11.402679313767448 0 0 0
699 2 10.432260800375177 5.999363127491944 14.833456002002592 0 0 0
689 2 11.258550759232955 1.5143943208840187 17.84654636607891 0 0 0
742 1 14.923707183826878 0.9544625153623548 18.77025836070684 0 0 0
748 1 19.130971084792076 0.7090554971778154 18.983278379503723 0 0 0
859 1 13.829515971052508 8.848192335964665 16.001313668365768 0 0 0
860 2 13.002422088356953 8.944420207541887 15.49273582584714 0 0 0
532 1 18.9875631377607 7.225964553707965 12.445641542716054 0 0 0
713 2 11.861903035547384 1.5788474372542547 19.894539727001757 0 0 0
700 1 10.679248730793791 3.9916608206140687 17.45227639471274 0 0 0
827 2 10.774050600522992 9.120235642456858 14.177662605634639 0 0 0
753 2 13.70743739463413 1.1118607769788902 15.983765222368609 0 0 0
832 1 17.221994464345087 7.954433364555219 17.14230742510346 0 0 0
367 1 12.614914214926516 4.820655465485816 12.465414705030412 0 0 0
368 2 12.515169697304781 5.804499400640231 12.629438823222056 0 0 0
369 2 12.448122581343924 4.481294590833345 13.347869008611655 0 0 0
850 1 15.23657214900859 7.539810363550316 18.67724925897567 0 0 0
831 2 15.411426200920724 8.421595840486692 13.265730729330125 0 0 0
828 2 12.112322422424752 8.578588183440857 13.569103522093698 0 0 0
407 2 13.732303791519499 4.650403060565211 11.066291268242226 0 0 0
405 2 18.151997128400783 4.281211076495138 12.077001707138294 0 0 0
852 2 15.705750829311377 6.945149461139857 19.256001156783896 0 0 0
861 2 14.50260862733479 9.097925576771706 15.317025754511022 0 0 0
420 2 15.745059350841265 1.6208887803308958 12.361789308878432 0 0 0
421 1 15.667240628548921 5.47251426333401 13.930093808661862 0 0 0
422 2 16.457989806897753 5.515207615170459 14.514142875403731 0 0 0
423 2 14.960366977939222 5.607224223416829 14.528885560799091 0 0 0
797 2 10.66361899824438 8.935083699665942 17.26481468738995 0 0 0
496 1 12.366022820930933 7.663954976563662 12.203418781193305 0 0 0
497 2 13.274397486444506 7.796698406522278 11.96831658691292 0 0 0
712 1 12.212883660295633 0.949086608725557 19.22376060409792 0 0 0
526 1 15.020931031960085 7.352154138424429 12.057053021144569 0 0 0
527 2 15.253275297847395 6.635698996653052 12.683193505651053 0 0 0
834 2 16.35240912594485 7.9968334713837415 17.538343476567874 0 0 0
851 2 14.28836170685252 7.384075062530403 18.85004232912804 0 0 0
691 1 12.467687790237122 4.616078988131903 19.326240104760398 0 0 0
693 2 11.792585542603039 4.608339485356389 18.647287104434387 0 0 0
697 1 10.9732656002088 5.945281252165805 15.62354450452592 0 0 0
334 1 1.011952843758671 3.783979118896019 11.008622743804876 0 0 0
863 2 18.656630525566186 8.405899728270436 13.657599946034091 0 0 0
677 2 5.582845593598043 1.5850674279488803 19.727656551819724 0 0 0
718 1 11.860875123423943 2.732602749049532 13.851133754962609 0 0 0
719 2 12.342862319286922 2.4936728728968043 14.633370847247614 0 0 0
720 2 12.420275734417803 2.2847201227475926 13.15145842752498 0 0 0
721 1 15.500097470516854 2.786788442726478 13.707028683249474 0 0 0
722 2 15.566062067964145 3.758924419574028 13.785197064088123 0 0 0
723 2 14.89078338701187 2.607285209167187 14.425617101739114 0 0 0
724 1 17.306425395169246 1.745862552310709 17.307903890721335 0 0 0
725 2 17.380123263503105 2.7340773298346415 17.382468943340584 0 0 0
729 2 17.972170108384244 4.768007820007948 19.326871846130224 0 0 0
730 1 14.493491475001422 4.279979207651807 17.29074522641472 0 0 0
731 2 13.928093285055061 4.426995672979328 18.072417204889344 0 0 0
732 2 14.218997700402458 5.045972864871867 16.667810273990572 0 0 0
733 1 17.79891079846499 5.872569860526323 15.566179220325488 0 0 0
734 2 18.811774223322455 5.916863253959721 15.539498707694031 0 0 0
735 2 17.586754576142223 6.732340369439061 16.005505699283145 0 0 0
736 1 17.17930663239321 4.232676568093908 17.64582326523287 0 0 0
737 2 16.26252775638452 4.437164710121721 17.56447610468069 0 0 0
738 2 17.537166943436944 4.7541560642500444 16.944645948550257 0 0 0
739 1 13.679049071427507 6.145471000002079 15.478549702049436 0 0 0