LAMMPS data file via write_data, version 8 Apr 2021, timestep = 880000

1008 atoms
2 atom types

0.11277391328539302 20.55975274396451 xlo xhi
0.11277391328539302 20.55975274396451 ylo yhi
0.11277391328539302 20.55975274396451 zlo zhi
0 0 0 xy xz yz

Masses

1 16
2 2

Atoms # atomic

380 2 17.39692038147467 9.082833755637093 3.410924557486982 0 2 1
191 2 20.007645022428168 1.8819770891178245 8.344717237225534 -1 -1 -1
105 2 16.918081559145637 0.5910618301842574 0.25037645842498213 -1 -2 0
658 1 4.361126582717621 4.130981477705752 6.942749332588402 1 1 2
9 2 17.77735372228866 3.5825492597920046 7.366382549540685 1 -1 3
109 1 19.179578698336893 4.596807231560125 7.28682385526746 -1 2 -2
32 2 12.00603046356672 8.609989512961732 0.7815344390466709 0 -1 -2
102 2 5.668500530505946 0.9538113663617627 7.850799224926195 -2 -2 1
712 1 18.242393355955272 9.932167536543055 6.5921509417254365 0 0 1
100 1 5.790824279022873 1.3808709478997445 8.692220650342094 -2 -2 1
299 2 14.172532154123955 5.948289915466822 4.054822513636644 2 -2 -1
855 2 9.598746256293163 8.351015497883438 0.34537789183041634 1 -1 0
8 2 16.8851004125688 2.6751003881939344 8.2541436710469 2 -1 3
839 2 10.464778851071738 5.965935721361413 3.469691751954822 3 1 2
44 2 7.191518193597401 6.331220976256172 8.556177952782697 2 1 -1
659 2 3.794437188962508 4.868168481054965 6.635092167965032 1 1 2
956 2 0.8712980681231156 4.410617871299787 8.600791452557498 -1 0 0
273 2 4.5144353532730825 7.2081633402319145 5.523578994823195 0 0 -1
826 1 9.576614107244659 1.608635480086257 9.973767135427781 1 -2 0
958 1 9.6736643796123 8.571028400695152 5.1605398681922345 2 -1 1
192 2 20.392978545283338 0.39137365098354426 7.6732607329088305 -1 -1 -1
276 2 13.628857033374038 5.4395221150487965 1.8772331073582096 1 -2 -4
506 2 17.81229980858123 6.719960896851944 5.425352911761138 -1 1 1
75 2 11.115149487371095 5.41214560576529 8.425265291468655 3 0 -1
876 2 0.9052118245379727 1.220594016362147 4.236686425546799 2 1 2
744 2 3.3047724683188138 3.1493549946468655 2.540452668142536 3 -1 -2
447 2 0.3449726021723923 9.261774184615469 5.274124233213589 2 0 2
200 2 15.925507737229086 6.598681884804851 6.367753502593047 0 1 1
831 2 3.9805640505920046 2.296014221761221 9.186583777601157 -3 -2 0
71 2 6.581403979312733 0.20907184500217532 5.524834654031114 1 -3 1
24 2 15.923923371462942 9.52773504402001 0.6026955047890814 0 -1 -1
694 1 5.600037148754471 7.468002933602633 8.259093995410808 1 0 0
752 2 9.08803999529347 4.503298704471237 2.1799920542408904 -3 -1 2
269 2 4.012580074039145 0.1578906292108492 0.8516321600790274 0 0 -2
408 2 16.86680518694613 2.262899584632482 4.441785130961248 0 4 2
1006 1 12.208569672988228 4.842454025732718 7.203735516593623 1 -2 1
909 2 17.86603755378093 0.5151440832151303 2.3897206163226374 -2 0 1
724 1 14.150140997178855 0.9777194885895928 4.939191986383769 -2 2 -2
1008 2 12.901653946766737 5.077595417681068 7.825108240796055 1 -2 1
313 1 12.127129056615452 2.254182607003734 6.404316984800982 0 2 0
677 2 1.87735861914657 4.8220632602097355 5.893450587932152 -1 0 2
185 2 19.90578734274507 1.9667583222222633 5.819130758485563 1 -1 1
407 2 16.84916893710245 2.296595619080648 5.998316803863503 0 4 2
135 2 2.6401410431039096 1.417913748394527 7.267645653293857 -1 -2 2
286 1 17.779552040147788 5.509337485600009 0.8381668466269765 1 1 -1
201 2 15.902141036564254 7.898018074265152 5.515406523859007 0 1 1
193 1 16.206959849462734 1.859348448425089 9.692532380713551 0 2 -1
725 2 14.019818029564918 0.25688027786103435 5.594941521656435 -2 2 -2
385 1 10.002127616546355 8.435067369182585 7.775603896911234 1 1 -1
999 2 14.145751220105783 2.6737261431656645 1.9740232629710521 0 1 0
424 1 10.693777474060365 4.028267809493881 0.9084727115922063 0 -2 1
270 2 4.90685506571961 0.8638246811511848 1.8940202839372742 0 0 -2
748 1 16.754846846793118 3.2590363133566376 2.92044492655248 1 2 2
170 2 4.508525969797621 0.4050276588727255 6.216841491373988 0 2 -1
695 2 5.192907131219774 7.817951938364752 9.107440162459262 1 0 0
72 2 7.141566666605361 1.4280577189400105 4.777261198842517 1 -3 1
977 2 18.76631917019966 5.203994324599131 8.852037422844194 -1 -2 1
501 2 16.831705647447855 7.803623970417071 7.978468147392511 -3 0 -1
957 2 1.9554218848758134 3.461391573797492 8.04518002850397 -1 0 0
275 2 12.887919851519687 6.6340197088717 1.3317905617121792 1 -2 -4
660 2 4.177959394605462 3.332294989047249 6.442500566522066 1 1 2
477 2 12.935390147187396 9.419742000876482 8.80663238098545 -1 -2 -1
310 1 20.427039931095383 6.223348995569418 0.7310746256749775 -1 2 -2
70 1 7.415977362966034 0.5826936980612487 5.164042376438273 1 -3 1
908 2 19.123749491538234 0.9935053707370978 3.240916983376662 -2 0 1
288 2 17.18048487280298 5.764502548209159 1.5504570863942402 1 1 -1
664 1 13.618705787541307 10.117165731980222 3.0966694698190316 2 0 1
7 1 16.91273814330687 3.1255531313892813 7.4012845953558255 1 -1 3
942 2 9.282237569711539 0.9080782401741004 4.784292141055332 -1 1 1
849 2 1.8519628263578143 8.470478116225653 8.089289036042297 -1 1 -2
771 2 6.405833255830114 8.2201137013849 4.239093019700485 1 2 0
483 2 14.741821563450548 5.349502634306761 7.529448801143454 1 0 -1
959 2 8.750620886588907 8.48073205727213 4.92293897367877 2 -1 0
92 2 0.41033306854949014 4.523193724534326 4.081280367822378 -2 -2 -3
657 2 5.004076989708901 9.468481471045584 3.667280619125224 1 -1 2
769 1 7.319270358672683 7.762555511279757 4.159795703176182 1 2 0
232 1 16.580656281916013 7.5704928992221365 2.7412843272067002 1 0 0
759 2 14.349764296851008 6.170653619937934 9.684470613064988 -3 2 0
481 1 15.213095720758725 5.198356735743163 6.7069196205463 1 0 -1
994 1 2.4689811999856697 6.914987402635525 3.4592913099273956 0 0 -3
996 2 2.6727610684323353 6.263490585447021 2.7714545453373147 0 0 -3
386 2 10.692392816557621 9.01108029905318 8.155911391368896 1 1 -1
714 2 18.188169067503036 9.139432463993428 7.155779467205171 0 0 1
154 1 10.971773268704803 4.335561005928657 3.9568416867156926 -2 0 0
271 1 3.882773558439111 6.641439879713404 6.012227008515351 0 0 -1
414 2 1.5368155430367167 0.7386562697759272 9.674772831153174 1 1 2
298 1 14.664308197910373 5.674173465606897 3.2152455099595594 2 -2 -1
272 2 3.1674091802518327 7.267893959582521 6.3699443875652895 0 0 -1
45 2 7.5669841559353594 4.905975210060389 9.038842229885873 2 1 -1
955 1 1.0739199730921003 3.852845737141753 7.81346974285898 -1 0 0
124 1 5.063919581379678 4.006832393734153 0.14742426986403248 0 0 -1
689 2 20.273209471747336 5.668570636422438 9.977940572950851 0 0 -1
328 1 12.81106336028244 6.592612314287001 5.059354048946634 1 0 -1
475 1 12.089007793002086 9.439754958252841 9.341987076837936 -1 -2 -1
795 2 0.869791247110414 7.704001553401131 3.720231721710226 1 -1 2
562 1 2.424384897452392 5.35581514003296 1.3350175693092683 -2 2 0
312 2 20.293653353013198 7.21210619096754 0.8319931161478602 -1 2 -2
840 2 10.248677118050477 7.399153550834579 4.118904739201701 3 1 2
565 1 4.3484301232346585 10.132170259570778 6.658273641438669 0 -2 -1
537 2 11.961349550853484 1.2546501502341538 0.847029774402853 0 -2 1
514 1 14.18864252341464 8.827572472464148 5.535617902066026 0 1 2
978 2 18.048403965035504 6.407288526236242 9.414244197419556 -1 -2 1
184 1 19.98474868562239 2.038220941960089 4.8812402339918535 1 -1 1
22 1 15.376420043848324 8.72953431826989 0.5131294043522192 0 -1 -1
743 2 2.878092729651064 3.618538328541552 3.9173962431823184 3 -1 -2
868 1 20.022748019663066 2.5039419105024625 10.273919645818479 -2 1 0
194 2 16.287778753596825 1.0226050033735452 9.179177988493546 1 2 -1
23 2 14.478223633467007 8.860150826443956 0.7904445350895808 0 0 -1
1003 1 14.503514562753745 9.199452788100803 8.172856055737777 2 0 1
635 2 8.410540617780596 4.66855059483345 6.134603432733187 -2 0 2
186 2 19.7981350840732 2.9289342176870616 4.607271677790039 1 -1 1
872 2 5.221569140823877 5.208095271235813 1.4767477378546958 0 1 2
31 1 12.860586948404096 8.33527992046857 1.1916499989575686 0 -1 -2
330 2 12.081926848030575 6.610049590285682 4.431321967648081 1 0 0
874 1 1.8003649509017794 0.826506963221999 4.061382616729339 2 1 2
37 1 19.723562530332618 2.8979413744100366 1.1603141341671568 1 2 0
234 2 16.085924646893442 7.760229939577449 1.958135565532377 1 0 0
827 2 10.53793372370443 1.6927249592686366 9.823148910668593 1 -2 0
618 2 12.318611496576633 2.133051021272689 2.6077811719723902 0 0 1
88 1 12.309789595594156 1.510165530995725 9.233286230622163 0 0 -1
536 2 10.885612799166184 2.4034706230743543 1.005143887895614 0 -2 1
287 2 17.831314120381503 6.272606576728698 0.25995722028652446 1 1 -1
656 2 4.805830424381541 9.410249701869912 5.1597627417249 2 -1 2
348 2 8.378718025316983 0.30247775066836613 7.2416620538425835 -2 1 -2
634 1 9.007248615790157 4.141658432304463 6.673929718470593 -2 0 2
429 2 0.11733267131795631 9.013544088701765 0.5859644760316357 1 -1 0
268 1 4.057181727428114 0.42575740071721035 1.8264969949912135 0 0 -2
54 2 5.384838020773409 8.801353291721409 1.070287240418273 2 1 1
500 2 17.297678920994283 8.569018230225742 9.211632814319902 -3 0 -1
329 2 12.614569007553685 5.9036843046430665 5.788104549777152 1 0 -1
111 2 20.028209556486484 4.121869477891447 7.039498429710764 -1 2 -2
155 2 10.429183074178505 3.566929497952993 4.161516661019307 -2 0 0
871 1 5.345788586859063 5.937687784823536 2.155290362776865 0 1 2
91 1 19.95176556989453 4.313576443399058 3.7139725902691985 -3 -2 -3
156 2 11.844019908156621 4.005770194338559 3.6565824103135487 -2 0 0
1005 2 14.566790785022343 9.162125440737531 7.185122700384916 2 0 1
426 2 11.484332594533381 4.564650579416383 1.170704830730697 0 -2 1
940 1 10.222105729151567 1.030158577323779 4.46005998638482 -1 1 1
406 1 16.69851529416978 1.7202216231614653 5.2168095741854845 0 4 2
758 2 14.37364403505207 7.275366601864298 8.693829109918843 -3 2 0
852 2 7.079372032604363 1.8964061691774636 1.1222357924741873 -1 0 0
960 2 9.762474781410127 8.289934859728008 6.11155062235098 2 -1 1
508 1 7.595808463923442 3.1987646964045346 8.750149998327707 3 1 1
134 2 2.672003667036838 1.4988304266151047 5.646113619200074 0 -2 2
616 1 12.895903647401598 2.6915680932866746 3.123244089296926 0 0 1
997 1 14.803214201503998 2.4117070947008448 1.336768233863206 0 1 0
848 2 1.5944716238374537 9.044523311330618 6.754792174478749 0 1 -2
793 1 20.413328055347122 8.068797840622322 3.875872197092151 0 -1 2
90 2 12.378244043457956 1.5263045711511105 8.263346528074667 0 0 -1
678 2 2.2004028159819917 5.762553372770674 4.620354463670598 -1 0 2
995 2 3.3413013060727006 7.167658095932135 3.726891980074995 0 0 -3
688 1 0.8353488085246501 5.54663824142436 9.876136504831608 1 0 -1
636 2 9.836417939867415 4.632901966207351 6.638792468723633 -2 0 2
347 2 9.205345680399274 0.7698581260446268 8.52828335458654 -2 1 -2
199 1 16.481407479830754 7.363677334486761 6.120267470477605 0 1 1
750 2 16.055803580406867 3.0901821932976086 2.265418863760952 1 2 2
95 2 6.33927985404982 3.7767638020147736 4.495429807900757 3 -2 1
428 2 19.12291340731529 9.548198845299803 1.100923364067716 0 -1 0
751 1 8.226262185766444 4.8188947585661515 2.443850933669706 -3 -1 2
901 1 14.244776277800915 3.3740922009374743 9.581609630113377 -2 0 1
233 2 15.947747318772324 6.883984409445501 3.1579308290574866 1 0 0
873 2 6.081435361206684 5.658260523405503 2.703372102710305 0 1 2
851 2 6.933000413307553 2.1540203876496813 2.6536854738008175 -1 0 0
757 1 13.962957294105511 6.437302532116205 8.857368560839765 -3 2 0
505 1 18.6602875994994 6.266907751006206 5.1155208215360695 -1 1 1
510 2 8.141140914539148 2.647338752616386 9.349863016565083 3 1 1
196 1 7.270615859924414 9.586891533511015 7.230070818776879 -2 -1 0
101 2 6.31346168521925 2.165935357288871 8.553442116233857 -2 -2 1
315 2 12.82327554530349 1.8494470009237305 5.863466852623466 0 2 0
1007 2 12.42923915483981 3.9089775977237196 6.976115635253966 1 -2 1
69 2 9.3899566476002 7.585933518334377 2.1976883669630665 -3 1 0
1004 2 15.239158438178798 9.94874029153364 8.108510469742093 2 0 1
617 2 13.269036660272779 2.0325522854014078 3.722585996960552 0 0 1
94 1 6.196376698257975 2.8397378963361466 4.27711129244649 3 -2 1
507 2 19.316855103603643 6.86957879179885 4.681219012043318 -1 1 1
847 1 2.291737358562623 8.49844754210879 7.23814533350815 -1 1 -2
446 2 19.97936851429016 10.230728796599529 6.182408095142409 1 0 2
875 2 2.376779103231053 1.4384444713717337 3.559636772211762 2 1 1
33 2 12.988731145586454 8.82240482184965 2.0317551267127616 0 -1 -2
38 2 19.375744201768104 2.007608554875691 1.5988207970094817 1 2 0
742 1 3.4231909331460475 2.977988305715127 3.477468095405054 3 -1 -2
850 1 6.67557627311194 1.5535274259908751 1.9398290283166963 -1 0 0
445 1 0.4557541113335536 10.038715527206934 5.908688884344256 2 0 2
401 2 0.8176129779040734 8.603904652415993 9.818425711797715 -1 3 -2
274 1 12.966505971839801 5.676919839058254 1.1398196727254721 1 -2 -4
902 2 13.418708828784913 2.8121661565282303 9.59599456531959 -2 0 1
89 2 12.677874640292503 0.6946449728809213 9.602259213457234 0 0 -1
400 1 1.613722282093491 8.04949325204879 9.702696498102032 -1 3 -2
387 2 10.344882130338853 7.561318429075086 7.775974113881776 1 1 -1
749 2 17.521031093680712 3.4943126882923328 2.3203771604015446 1 2 2
499 1 17.58385306584147 7.905348152454928 8.546700026582217 -3 0 -1
412 1 2.3566678279602282 0.8758975584672258 9.14776834258523 1 1 1
482 2 15.729928797995806 4.413224748826509 6.855639062702905 1 0 -1
753 2 7.939112898720269 5.245341857264343 1.631018787441736 -3 -1 2
463 1 6.811144366169004 5.302892551932797 5.253358376322735 1 2 -2
300 2 15.342948409149297 4.984878265378317 3.4299948675858887 2 -2 -1
53 2 5.51214520918821 7.300676714881211 1.276387009255289 2 1 1
770 2 7.552306329064247 7.828927213359225 3.216466358073732 1 2 0
93 2 19.3408012545302 5.0839890820451625 3.8800869933116275 -3 -2 -3
696 2 4.840501672865438 7.496286020340475 7.684856696054611 1 0 0
96 2 5.314390101168527 2.857846200136677 3.9930580130021487 3 -2 1
402 2 1.3594044119055337 7.1525556486038795 10.026307784546544 -1 2 -2
464 2 6.894352569460774 6.19906796216675 4.845064696947176 1 2 -2
564 2 2.5444498374239237 4.43494523132248 0.993833869988359 -2 2 0
509 2 8.171241480827346 3.42615809998702 8.063147000542573 3 1 1
516 2 13.700018775721887 8.078103651556434 5.185753317362133 0 1 2
52 1 5.581595247301168 8.002557825391406 0.5664480691726849 2 1 1
219 2 1.1076118784835824 2.7274747106172708 0.8245054388080462 -1 1 -1
838 1 10.746446256761393 6.886262431049304 3.411708127548101 3 1 2
465 2 6.177359318689558 5.426672661879178 5.988897663000484 1 2 -2
907 1 18.845059554942793 0.7155335200484555 2.331343519896946 -2 0 1
515 2 14.06195964365493 9.602589352585928 4.968508290929221 0 1 2
73 1 10.520270808430093 5.982417559329135 8.988234285706262 3 0 -1
190 1 19.927180488612173 1.2682235661856291 7.644718671122018 -1 -1 -1
794 2 20.124128799138283 8.436045236792136 3.015872216917842 0 -1 2
655 1 4.9207537158089005 8.780232867444651 4.371865028266136 2 -1 2
563 2 1.4938625468458355 5.672898054842302 0.9866036541403097 -2 2 0
197 2 6.851211181826132 8.767130371207088 7.674451005381829 -2 -1 0
43 1 7.89518009209937 5.811923678230547 9.01652606647258 2 1 -1
314 2 11.303305588932712 1.972122966800802 6.0188373894811535 0 2 0
676 1 1.8404942576265568 4.872447832552577 4.9418297024881745 -1 0 2
110 2 19.04123186918005 5.276360243429264 6.557018050884259 -1 2 -2
39 2 19.844155394065286 3.505240466985429 1.884200003780962 1 2 0
535 1 11.088701979690134 1.4869192946562166 1.2967211950618236 0 -2 1
82 1 5.242245192777222 10.197508885018472 1.8723642696657448 -1 0 1
311 2 19.675217719432865 5.732133682773472 1.0754735820632446 -1 2 -2
903 2 14.995737736697214 2.7284945552470528 9.618421938428439 -2 0 1
218 2 2.1422760218707735 1.625190500630178 0.6943172981461128 -1 1 -1
74 2 9.56614354502238 5.851726878544652 8.783893038667225 3 0 -1
427 1 19.89193870367357 8.949707527952784 1.2554912596778427 0 -1 0
829 1 3.9568220816799973 3.2402932395761255 9.235334581292628 -3 -2 0
198 2 8.158971454920865 9.648831583019232 7.639463462020022 -2 -1 0
941 2 10.051584254961208 0.8641394890397757 3.5050283800566 -1 1 1
217 1 1.964109761904001 2.570375176262463 0.44936702226524183 -1 1 -1
133 1 3.2194869708644784 1.4875998113352737 6.517655257502748 0 -2 2
68 2 8.700866881181831 9.040386195393287 2.1530806272334444 -3 1 0
67 1 8.731633267823977 8.144171443668247 1.751580385688057 -3 1 0
379 1 17.55388753274356 9.808873198788506 4.088278992599005 0 2 1
976 1 18.429160212169002 5.520750448377418 9.674485719778222 -1 -2 1
726 2 15.091757487321194 1.3959756110302715 5.0301291930783325 -2 2 -2
830 2 4.337692749799059 3.6043412904356957 8.43728032898823 -3 -2 0
567 2 3.6503716402586357 9.541021107205465 7.118568575584101 0 -2 -1
713 2 18.075471832117657 9.600556672073475 5.675416081497595 0 0 1
998 2 14.502055263684444 2.5502253474836682 0.46459481822466686 0 1 0
485 2 5.697654240755549 0.6794225163716299 10.034519845680656 -1 -2 0
948 2 3.2033196729389233 8.000698990454925 10.088267049666738 1 2 1
425 2 10.347170836273783 4.379605801310026 0.1147361167059485 0 -2 1
739 1 12.89331335412653 2.517500556881067 12.391788545477695 -1 1 0
397 1 1.149228420111778 9.393196861426668 17.59839978092747 4 0 0
27 2 13.664064524434155 2.601899390497073 15.993242985457808 1 -1 2
104 2 17.07397807773571 2.030254765903981 20.055125934625277 -1 -2 -1
949 1 0.48546435192283943 8.746036561658533 13.079221689396933 -1 1 0
86 2 9.471542134177401 4.059865876872641 11.54670233739318 0 -1 -2
214 1 17.332602759827083 6.360075878939461 12.713057943986891 0 -1 -1
950 2 0.8232641328768204 9.564874759834868 12.552692533303725 -1 1 0
77 2 17.139855453468456 3.4243713698233167 12.041508717320612 -2 -1 -2
574 1 1.5848894488758085 8.828026072204718 20.028953288676615 -1 -2 1
331 1 20.13087409540136 3.0254281674064583 17.61868362175057 -1 -2 -2
249 2 18.722878808947208 4.619255207429667 16.44941686712897 1 0 -1
708 2 6.628334939505669 10.03217391631406 13.659056657303921 0 -1 2
368 2 3.897715532894521 0.9196791747445534 19.050368620017213 1 1 -1
215 2 16.564927961235583 5.96972994127669 12.206337399821088 0 -1 -1
242 2 18.040573508321824 7.616632962785637 14.004171899176844 0 1 0
469 1 13.19397434118687 7.041881628481041 15.3752789873315 -2 1 -3
667 1 7.051555412550635 2.5127453611033115 16.63515861548854 0 1 0
796 1 3.526968754624499 6.8321005259401675 19.547479603652548 2 -1 -1
593 2 8.000908704918032 5.978139635605852 16.982999199612962 -1 1 -1
399 2 0.6159797769857903 10.194649498231325 17.71494005410266 4 0 0
741 2 13.790918814936608 2.3934542545333235 12.10730172513807 -1 1 0
5 2 2.057571862530969 3.974646867833343 16.058870355453923 -3 -1 -1
97 1 16.44757072767993 6.790646614193144 16.827761430305294 1 -2 0
764 2 15.217543589325448 7.053662694875616 20.11419570464823 3 0 1
283 1 8.4459739421913 9.438674219094853 14.17375640047053 0 -1 -3
142 1 8.881856306671281 9.293918629402276 16.94639578257395 2 -2 1
317 2 2.979865309969077 3.189769088304918 17.96372384808925 0 0 -1
799 1 13.12526600333952 6.167099887249641 12.738545263263184 -2 3 -2
611 2 17.6655920240511 1.087833486371556 16.63418808768844 -4 4 0
26 2 14.268314921948187 1.72595002085268 17.154006017091973 2 -1 2
284 2 9.200412360563883 8.796600817786127 14.049209392386897 0 -1 -3
216 2 17.918676852506557 6.816996006754007 12.064011488568205 0 -1 -1
471 2 12.3339667618359 7.518929547674131 15.503249950485698 -3 1 -3
467 2 7.446943836713707 1.9106731160630217 19.492806264872645 -2 1 -3
209 2 18.18812916328028 10.075312317488542 14.5499079257512 -1 1 -3
439 1 10.937781505707493 1.1340124528436457 13.401378883871173 3 -3 1
453 2 16.97939059758724 3.1454227077854893 17.66157877180285 -5 2 -1
808 1 11.261798252846335 6.677147167573428 18.138316216406093 2 2 -1
491 2 19.25461976823556 5.195733847034289 14.03296301554523 1 -1 0
258 2 10.306327088825752 6.85909757572544 14.17092425975207 -2 2 -2
229 1 8.124639176947536 5.559938363231371 19.99175232733911 2 2 0
947 2 4.201360349305084 7.34814675359016 11.082465864949096 1 2 1
906 2 12.827856222165403 3.6365258174809605 14.151333463150928 0 -1 0
561 2 6.9340233775138005 10.238236406976462 17.076884124067707 3 0 0
231 2 8.707906115067225 5.209999784345151 19.259694403912643 2 2 0
248 2 18.059357122501243 5.958530775552415 15.883595279950468 1 0 -1
546 2 11.155087351704932 5.014038248836402 10.551971874180675 -3 -3 0
719 2 10.390016126274443 7.639148341465403 10.485251019428018 -2 0 -3
78 2 17.709516978522995 4.339084947138699 10.873963393217366 -2 -1 -1
237 2 10.648543869424278 3.338700597942182 18.50053711389838 0 -1 -2
440 2 11.58191144037465 1.5592890997726019 12.845829321922151 3 -3 1
246 2 3.1782803762986656 8.620024745800047 15.159182517514632 1 0 -1
979 1 3.2689289088002353 3.1030113075234063 13.59302295294733 1 2 2
195 2 16.846200367659208 1.8656974280815795 10.416309489966475 0 2 -1
967 1 16.7190845155944 3.8145306952759785 19.535787793979424 -1 2 1
333 2 20.02629371386378 3.875990949988713 18.084015372106542 -1 -2 -2
212 2 5.174285996527426 8.392870041194758 14.604535901585624 0 1 -2
985 1 6.614839231197979 4.926332500197368 17.662783646416468 0 2 -1
801 2 13.008139120092396 7.070996071932998 12.319876125975807 -2 3 -2
79 1 1.861554635949477 5.634411540857672 15.726320737343618 -2 -2 -2
700 1 6.813313418910786 9.249132719718364 11.028965414561467 -2 1 1
648 2 0.13602600572940557 5.97005112683813 19.42929387092129 3 0 1
398 2 0.5755542424496507 8.662062637995593 17.19125880732456 4 0 0
492 2 19.116141300234087 4.225877746107772 12.797887873429412 1 -1 0
345 2 18.76746319654542 8.690629295259974 11.024549421563666 1 3 -1
243 2 19.414114798883457 8.446939123488292 13.784651730154819 0 1 0
316 1 3.5243497613934793 2.8098397323311715 18.682326213206935 0 0 -1
251 2 3.719955053350751 1.314630650135364 12.74222146588266 3 1 1
594 2 8.712080646161452 5.865685559531626 15.63342999777911 -1 1 -1
285 2 8.307720443708853 9.500498456914148 15.110170586217206 0 -1 -3
701 2 7.631140458971023 9.79844702298848 10.951697071178932 -2 1 1
669 2 6.71171932814106 3.341950469648359 17.051292107179528 0 1 0
11 2 11.997018581369462 1.7101467773805192 17.582304143680375 -1 1 -1
415 1 15.751491948903567 8.702994247022932 12.575425160816907 1 2 2
308 2 9.99506565045971 0.12242029641108672 12.237454870224427 1 2 0
625 1 7.197421746216471 5.596500381812901 14.1727207622618 2 -1 2
842 2 6.822556496446794 0.902021440674968 11.911070591767668 -2 1 -1
81 2 2.1534840393463974 5.774969989307371 14.80896936689795 -2 -2 -2
396 2 14.855094037878414 4.609080092035663 10.700961624173905 0 2 3
1001 2 15.362323506335397 8.781078887257843 14.283222906782644 0 -1 -1
936 2 4.069621156467183 6.541518388415072 17.870650391545645 2 -1 -1
10 1 11.139247497822256 1.7527401995264138 18.000361838854623 -1 1 -1
452 2 16.62603404847213 3.3228469670751863 16.181835766208312 -5 2 -1
136 1 17.872232660873447 9.73955737145355 18.383532706921418 3 -1 1
810 2 10.521076179415351 6.349569111804409 17.547338852457624 2 2 -1
782 2 15.092865562887301 5.710841206260346 17.032343341637265 -1 0 0
599 2 14.615533798962582 9.543693236850062 18.07321695217365 -3 -1 -2
468 2 8.237644122973839 3.2989164959660617 20.051168353182188 -2 1 -3
646 1 20.39402289165265 5.639054127021815 18.51529568156624 2 0 1
247 1 18.466267714097174 5.146454600115585 15.678626502126617 1 0 -1
159 2 18.768934122808894 6.815619195633414 18.927103095870297 2 -1 1
987 2 5.8262138278575515 5.389837393399303 17.32991318240183 0 2 -1
99 2 16.132672105776596 7.564375530422937 16.328337740791333 1 -2 1
969 2 17.31996701453875 4.439264662610393 20.03928001532025 -1 2 1
775 1 19.04469589460212 0.14748170209247086 11.596528249612865 -2 0 1
800 2 13.195417006557388 6.272940694595484 13.702937251476609 -2 3 -2
668 2 6.526288443374661 2.513453990828079 15.806284871236286 0 1 0
230 2 8.127669015370685 6.5222899229140925 19.766505754744816 2 2 0
342 2 0.6655635911823785 6.826514783729816 15.7781748990135 0 0 -4
882 2 15.498166871484836 1.688899273488266 12.945655685371968 -3 3 -1
470 2 13.258706217401873 6.345618088718819 16.05604668651975 -2 1 -3
916 1 13.036491352666351 8.629918839849406 11.856445822259873 0 0 0
244 1 2.392697103491982 9.222187518424516 15.122045028310934 1 0 -2
765 2 14.082338764626284 6.090260955198746 20.338352405369747 3 0 1
340 1 0.2051294854618151 7.597435994287119 16.219965071184625 0 0 -4
854 2 10.286652603042716 9.404968710193808 19.955495708417562 1 -1 -1
627 2 6.444319499457025 6.0841076702121955 14.466844478077991 2 -1 2
241 1 18.536894814199428 8.39863346203979 14.378659821164984 0 1 0
880 1 15.637381156386295 2.657903743144117 12.7003032137654 -3 3 -1
797 2 3.4086966931345493 6.13733453584013 20.228054668050675 2 -1 -1
626 2 7.4226371002322935 5.857442099812383 13.270799023128578 2 -1 2
841 1 7.46491273061142 1.4366650594917323 12.479454999304576 -2 1 -1
466 1 7.465707498020019 2.6764091924117217 20.101643768693616 -2 1 -3
938 2 7.231585806523921 7.522821552956468 11.479871814829714 2 3 1
1000 1 15.12640173090094 8.967200248234025 15.275219105913283 0 -1 -1
366 2 3.2328301658949394 1.1317700716496144 16.50533463718804 2 2 0
454 1 1.5446456800540123 6.024604582853876 12.985734449085838 2 1 2
326 2 10.044651796883786 2.3866165330086053 16.297267423418617 1 -1 0
103 1 17.268934534637395 1.1025155260677046 19.872862092859194 -1 -2 -1
257 2 10.90652038689688 7.961894438318277 13.279408279314712 -2 2 -2
693 2 9.72704950202455 4.1523840772385645 14.469553794203165 1 -2 1
139 1 11.554856773328536 9.851424475484178 16.31459536908292 0 -2 0
403 1 13.25283081667563 8.604961142611367 18.37695538193049 -3 0 -1
66 2 17.528902170190843 10.293696571066013 20.046835977039006 2 2 0
126 2 5.905412158906592 3.5037609087327315 20.45953911895525 0 0 -2
690 2 1.1480417337579851 4.97340648539116 10.588515380612764 1 0 -1
951 2 0.9140700189382271 9.021383725055104 13.935345253394383 -1 1 0
405 2 12.585285780953425 8.498244959114038 17.668191405468747 -3 0 -1
937 1 7.780012221934707 6.757173591986499 11.75632594554399 2 3 1
404 2 13.654027349792136 7.7273398849088695 18.706899463285755 -3 0 -1
647 2 0.49051355332964597 6.155787723984787 17.899278390394613 3 0 1
575 2 2.289525473008984 8.157762408556545 19.993486145350687 -1 -2 1
363 2 4.795136328605057 5.436067734179927 12.046218420989856 1 -1 -1
986 2 6.773763385807986 5.338017257127686 18.53897711932695 0 2 -1
162 2 12.567910152603941 2.4267149986773004 19.344494657894096 2 1 1
441 2 10.454642785704662 1.8632129454658106 13.717996365569734 3 -3 1
158 2 17.813301597977468 8.069618681442577 19.184150117270836 2 -1 1
805 1 15.80164448219724 4.292687724902897 14.934180025478481 1 0 1
544 1 11.481082659470317 4.70206282032521 11.417871643955813 -3 -3 0
455 2 1.119772773147478 6.863371063351714 13.084064320769828 2 1 2
46 1 7.502872903263787 0.6305305267425433 18.45974680896747 2 0 3
809 2 10.987052859922604 7.221147865380554 18.917418431632324 2 2 -1
144 2 8.689006405947321 8.385629836564897 17.199046188302784 2 -2 1
343 1 19.08277190381559 7.7727261599598 11.203053263767156 1 3 -1
14 2 1.089561599140392 2.995545512260287 10.832095108143989 2 1 3
25 1 13.485848267359792 1.880412280787734 16.603299180806022 1 -1 2
692 2 9.914141211463798 4.974108947127606 13.116832241361413 1 -2 1
980 2 2.6940855523809137 3.517768395327878 12.869435704927064 1 2 1
48 2 8.415160578777064 0.24054510345085386 18.61324230633772 2 0 3
740 2 12.560812623165363 3.257510201641808 11.874973364910373 -1 1 0
843 2 6.87334709384618 2.036051208009376 13.0412910775268 -2 1 -1
934 1 4.338409993763594 6.19593492374756 17.02724989014051 2 -1 -1
125 2 4.536751928245281 3.692078436825113 19.831816867046992 0 0 -2
205 1 5.514173807480497 4.227979590492418 11.159882524186463 0 -1 0
250 1 3.6334449818334424 0.36512503357488757 12.499967875951178 3 1 1
592 1 8.786288894128186 6.344398974824817 16.474697786605677 -1 1 -1
610 1 17.846421232741214 0.11753194946411485 16.531740404325895 -4 3 0
325 1 9.53532282450731 2.551030719523651 15.452684698595636 1 -1 0
462 2 19.276540983027484 2.3994138579750564 15.586459654928573 0 1 2
866 2 13.822424366180494 0.3785063450496784 19.88237310224134 2 3 3
981 2 2.8445762459150687 2.9670735330527434 14.486897249036529 1 2 2
160 1 13.219648361002038 3.112820249763422 19.620109892372913 2 1 0
4 1 2.0094030884065077 3.1267934827909944 16.51886772842973 -3 -1 -1
256 1 10.579880197094752 7.807029880407972 14.163289807576906 -2 2 -2
6 2 1.1252999445843093 3.1049518512345466 16.942416076372023 -3 -1 -1
783 2 14.060550934409314 5.454411362093412 18.065597632169418 -1 0 0
239 2 6.502413553071306 4.02660849335412 14.21285527837997 -1 0 2
211 1 4.793280658527086 7.515090426337156 14.769913572669505 0 1 -2
571 1 17.616371844520636 9.801655215978624 10.562317749008338 -1 0 0
460 1 19.66517827095081 2.159101605788896 14.738436499192016 0 1 2
786 2 20.393547976989527 0.7987057406339201 19.506453649697054 -2 1 -1
344 2 19.817315933951047 7.780608308609746 11.817055212523023 2 3 -1
691 1 10.073526597816294 5.015892744355736 14.107841204798133 1 -2 1
622 1 7.303707744200209 8.038256919342226 19.064096129691876 0 1 -1
361 1 4.297149291607493 6.230567629592337 12.425913895177501 1 -1 -1
416 2 16.24509597257724 7.7942348715739564 12.551173456328701 1 2 2
47 2 7.626702747024768 1.2510613637532728 17.683087707689218 2 0 3
245 2 2.0105844733797693 9.192153712640746 16.03675555440871 1 0 -2
869 2 19.403282576473345 3.1843208674380836 10.457898411695114 -2 1 0
490 1 19.740952983111367 4.663213564132945 13.370796497688973 1 -1 0
451 1 17.032756826286374 2.669387801105739 16.838905097334568 -5 2 -1
327 2 8.604969099582014 2.428783527469589 15.813884970390474 1 -1 0
143 2 9.732054978991961 9.211980012538111 16.541740139728827 2 -2 1
905 2 11.827013144497833 4.5143410448269075 14.91512300602433 0 0 0
235 1 10.21514786206783 4.163456919489278 18.75086533040651 0 -1 -2
206 2 6.472222660976781 4.140543924791264 11.111816778442332 0 -1 0
763 1 14.725798971255308 6.397495468003031 19.639568592928157 3 0 1
456 2 0.6976167696133858 5.390484155768997 13.199902746466183 2 1 2