LAMMPS data file via write_data, version 15 Apr 2020, timestep = 0

1944 atoms
2 atom types

-6.6155289861981714e-02 4.0048260289864885e+01 xlo xhi
0.0000000000000000e+00 1.9724196757160378e+01 ylo yhi
0.0000000000000000e+00 2.0356184033550555e+01 zlo zhi
-1.3200086539526978e-02 -1.6744942291310849e-02 7.9067740477967163e-03 xy xz yz

Masses

1 16
2 2

Atoms # atomic

750 2 1.2472661889736504e+01 1.8466804309182596e+01 8.0860483695942365e-01 0 -1 1
1160 2 1.2043657858770946e+01 1.9388122748852783e+01 6.2510047236166315e+00 0 0 0
888 2 1.2278005215167827e+01 2.0295258458471159e+00 8.6406992211773996e+00 0 0 0
1779 2 9.3561610410001688e+00 1.1832171688468694e+01 4.5068188540619492e+00 0 1 0
1579 1 1.1537933659818783e-01 1.9344524419228371e+01 8.1282890651243900e+00 0 -1 0
1343 2 1.0114413860967623e+01 1.6462176361216294e+00 9.2720439901934846e+00 0 0 1
449 2 1.0388746010657798e+01 3.2682649365411196e+00 4.3071464524059468e+00 0 1 0
726 2 1.7934843212364783e+01 7.4023708322538733e+00 2.0583757524425450e+00 0 0 0
725 2 1.6840812625530365e+01 7.3966920016345616e+00 3.2027894759235052e+00 0 0 0
1372 1 1.6184244228705371e+01 1.4576598450507690e+00 9.5540824758471754e-01 0 0 1
245 2 4.2952013845331241e+00 1.9509470165702776e+01 7.4269792038142848e+00 0 0 0
535 1 1.0895261847293215e+01 1.4481445999435760e+01 3.2939738733721757e+00 0 0 0
1332 2 1.7504789855380793e+01 1.3407084226243025e+01 9.5214445102700775e+00 0 0 0
686 2 6.3141198893839956e+00 1.3088643500115433e+01 7.2768104768826767e+00 0 0 0
481 1 1.0078744408259372e+01 1.9635066664384780e+01 3.5225564340947049e+00 0 0 0
1587 2 1.3298649599358539e+01 1.6324206773951953e+01 9.7695582442769364e+00 0 0 1
269 2 1.8944896459403971e+01 1.4491294300837275e+01 6.0068219510300791e+00 0 0 0
435 2 1.8049811764515688e+01 3.9690023556477350e+00 9.2251337391892001e+00 0 1 0
1804 1 9.2935191292609769e+00 1.1502460650799847e+01 6.5957792092361283e+00 0 0 1
878 2 5.1205912686992070e+00 8.1327384375043241e+00 1.1818497472194021e+00 0 1 1
1781 2 1.4928164355039486e+01 1.0619016537884532e+01 2.3857340770693263e+00 0 0 0
944 2 1.6685873656187347e+01 1.7989906063044330e+01 3.6328519098150798e+00 0 0 1
250 1 9.5614776946982349e+00 1.2259355405874919e+01 9.5624435608023861e-01 0 -1 0
287 2 1.8620931408722615e+01 1.4851033086633720e+01 6.9752975910686432e-01 0 0 1
517 1 1.9421533107509472e+01 1.7643112170844265e+01 5.4473770351631163e+00 0 0 0
1306 1 7.5376693852955956e-01 2.3191028721634650e+00 1.3344527542315121e+00 0 0 1
443 2 8.9621672235926564e+00 5.9462135223677395e+00 3.4397735245178058e+00 0 1 0
8 2 9.8138463295836686e-01 1.2323653690787175e+01 8.6894967671011347e+00 0 -1 0
227 2 2.8046522000783010e+00 1.2251947937469136e+01 2.0280089611176875e+00 0 0 0
266 2 1.0281821334711447e+01 6.6750555413905914e+00 6.9829632849363155e-01 0 0 1
1774 1 7.4228648046749446e-01 1.8511172781688756e+00 3.9114483693874980e+00 0 1 1
52 1 4.6119978513438253e+00 1.0975017744734906e+01 2.4184192383590886e+00 0 -1 0
1185 2 1.3254218827398304e+01 1.3535201908960532e+00 5.5562012378250447e+00 0 0 0
33 2 3.0348949457137433e+00 2.8724059665441617e+00 6.6695138980173514e+00 0 0 0
1775 2 1.4745363023823663e+00 1.2729034408098141e+00 3.9758782230993472e+00 0 1 1
1582 1 1.0117844696324248e+01 1.6924920894301252e+01 4.0810778845462545e+00 0 0 0
1576 1 1.9604805528968082e+01 7.8757635566079998e+00 4.7991217474662839e+00 0 0 1
689 2 1.5740672033407932e+01 1.6074188635262885e+01 8.6914440453877937e+00 0 -1 0
244 1 3.6327053631570059e+00 2.6058495525005959e-01 7.9091777973788835e+00 0 1 0
789 2 1.9822933131479509e+01 2.1565358974390851e+00 7.9280004167333793e+00 0 0 0
971 2 1.0960017264963833e+01 1.4532330307399782e+01 6.4685386606992248e+00 0 0 0
1541 2 1.7369400950781395e+00 7.7257540029434191e+00 5.7044930060940073e+00 0 0 1
1776 2 6.2680055726559880e-02 1.4338610980217863e+00 4.5232605117580640e+00 0 1 1
1824 2 1.4067044350972619e+01 4.9181505761428355e+00 2.1002580339829731e+00 0 0 1
908 2 1.0485203237226171e+00 2.2077084975626819e+00 7.9521564238921307e+00 0 1 0
678 2 2.6806967204225467e+00 6.9090120319398958e+00 3.0446536333196366e+00 0 0 0
1537 1 2.0035130738437718e-01 1.3084067599246918e+01 9.8263640247859574e-01 0 0 1
668 2 8.0075592486310345e+00 9.7267691565165144e+00 2.7317146122592639e+00 0 0 0
47 2 1.4844982572586984e+01 1.5234771393914606e+01 4.7927048853618821e+00 0 -1 0
1591 1 1.4460723477177439e+01 1.6836325035510821e+01 2.6529362657171123e+00 0 0 1
1746 2 5.6452368709056868e+00 1.8230789908930685e+01 2.7361270018519943e-02 0 0 1
650 2 8.1642196753443059e+00 1.9629985908240585e+01 3.5128505455748664e+00 0 -1 0
32 2 2.8458643807502213e+00 4.0575157908227677e+00 7.6154173159953773e+00 1 0 0
1100 2 9.3619811577040686e+00 1.6469188536508536e+01 9.4942610130537730e+00 0 -1 0
1553 2 1.3013367302986513e+01 6.2295464667767604e+00 9.8586626549838119e+00 0 0 1
453 2 8.2855141576387492e+00 2.6363000672785675e+00 3.1280778509111873e-01 0 -1 -1
249 2 7.5571726088852094e+00 9.5527384390078023e+00 8.2246583099400929e+00 0 0 -1
1552 1 1.3181618718025012e+01 6.1916132534964090e+00 8.8982356294323406e+00 0 0 1
683 2 4.5615624961303327e+00 1.4378887426567236e+01 3.8557977123588052e+00 0 -1 0
1101 2 1.0953471903389442e+01 1.6570763036021422e+01 9.2737260796743808e+00 0 0 0
456 2 3.1190093259573964e-01 1.8217769306764453e+01 2.5636362860358703e+00 0 0 0
915 2 1.0655944783814055e+01 1.5336783978936607e+01 1.1616760321146207e+00 0 0 0
228 2 2.0019275841052377e+00 1.1843461001089109e+01 3.3579560982150314e+00 0 0 0
1756 1 1.5964887441733428e+01 1.8041326356992883e+01 5.8070362466746515e+00 0 0 1
281 2 3.3057283740967160e+00 7.5430020990046664e-01 2.5886970387539248e+00 0 0 0
906 2 1.3055279181978721e+01 5.2636254657417654e+00 5.9666269405742032e+00 0 0 0
69 2 4.2756421750431812e+00 1.5867378883717920e+00 8.8016831964574607e+00 0 0 0
454 1 2.1497400189391364e-01 1.7360942256753532e+01 3.1121518105337067e+00 0 0 0
1126 1 9.9463533731119913e+00 9.2637965338979580e+00 9.8295509144703583e+00 0 1 1
450 2 1.1432778210234375e+01 4.3655241978478800e+00 4.8731287458333963e+00 0 1 0
254 2 4.1944836711916156e-01 9.6924620890375230e+00 2.5145951834993214e+00 0 0 1
676 1 3.3366008688159856e+00 7.6491650000903890e+00 3.1436713901377309e+00 0 0 0
1736 2 6.9313592292923953e-01 7.3971181038353064e+00 5.6174942283346774e-01 0 1 1
970 1 1.1127039017937538e+01 1.3553519025988946e+01 6.6006470959014294e+00 0 0 0
709 1 1.9049687086271877e+01 5.1832197784423322e+00 5.2995722962050964e+00 0 0 0
1788 2 1.9089779704432968e+00 1.7595327147472602e+01 6.7134334698844738e+00 0 0 1
483 2 1.0354314019040061e+01 3.5129234793921027e-01 4.3296966724172252e+00 0 1 0
1542 2 2.2988206303674019e-01 7.9833450747306571e+00 5.4810993934403793e+00 0 0 1
713 2 7.0110428324025067e+00 1.1557790783738376e+01 9.6005727074496061e+00 0 0 0
291 2 1.2270889289982955e+01 1.0204993746800630e+01 6.2854812760942300e+00 0 0 -1
1150 1 1.4156198041950658e+00 1.4859648657540774e+01 4.1179381583836916e+00 0 0 0
1586 2 1.3077004075589002e+01 1.4978150577792324e+01 9.0287083526131227e+00 0 0 1
679 1 3.2106628296049278e-01 9.6118075300088908e+00 8.3995360795014875e+00 0 0 0
736 1 8.2619373738781086e+00 3.0784007789060936e+00 4.3619783910718324e+00 0 0 0
100 1 1.8681117880652614e+01 4.2451832703704800e-01 4.6022439018525283e+00 0 0 0
247 1 7.5865662076438412e+00 1.0563234203961441e+01 8.4087504427599313e+00 0 0 -1
710 2 1.8447999348568672e+01 5.2013918586706573e+00 4.5416833435049542e+00 0 0 0
1526 2 7.7361621404999932e+00 2.5004953846531133e+00 9.7315254707474086e+00 0 1 1
505 1 6.0059329885508888e+00 1.1739973757979005e+01 6.2081119324047451e+00 0 0 0
1366 1 1.7332843043668007e+01 1.4704682551549658e+01 3.1278644493432211e+00 0 0 1
74 2 1.9572074820361795e+01 9.2352193527209785e+00 7.6016485385788268e+00 0 0 0
877 1 5.6278428669047704e+00 8.4670458108162077e+00 1.9102794841292376e+00 0 1 1
491 2 6.3298957086798362e+00 7.5732145327959532e+00 7.6024729072485613e+00 0 1 0
1344 2 1.0205156412660086e+01 2.7291435900945342e+00 8.2526538360497224e+00 0 0 1
7 1 2.1641216428100812e-01 1.2818473911974545e+01 8.9763102024301489e+00 0 -1 0
537 2 1.1847509039957055e+01 1.4272114083557344e+01 3.0548260494177351e+00 0 0 0
275 2 8.8679547065299555e+00 1.4946508376485657e+00 1.9961260038845776e+00 0 0 0
1578 2 1.9328813312718140e+01 8.4829315667264815e+00 5.5165627604523859e+00 0 0 1
1163 2 7.7301868697317815e+00 1.4982562205929112e+01 9.0451749370756609e+00 0 0 1
1758 2 1.5090900782593398e+01 1.7576081600280226e+01 5.8444534063644857e+00 0 0 1
1519 1 9.0183317290294873e+00 4.4608934747698683e+00 8.1733039518903823e+00 0 0 1
665 2 4.5970486822117103e+00 8.5249636953056900e+00 6.5023410901731822e+00 0 0 0
941 2 1.0987342059237186e+01 6.5248124884240122e+00 4.9029064761967467e+00 0 1 1
461 2 4.9212599697125947e+00 5.2799042400299347e+00 8.1442667600050083e+00 0 1 0
1093 1 5.5790267240390969e+00 1.7675490210982311e+01 4.5225837165275093e+00 0 2 0
1560 2 1.1338771556009863e+01 2.4210132118193617e-01 2.1023563837697168e+00 0 1 1
711 2 1.9352252230429883e+01 6.1236042429786250e+00 5.3543280978940855e+00 0 0 0
1812 2 1.7518467041735093e+01 1.9112880031520145e+00 2.2203965377487798e+00 0 0 1
251 2 8.9560723382600447e+00 1.1530647115816224e+01 6.6326784908438829e-01 0 -1 0
1543 1 2.2421018524017161e-01 1.5418947738663405e+01 8.3531367024391425e+00 0 0 0
1107 2 1.0146848806956696e+01 7.9368637664948638e+00 6.8893610019770941e+00 0 1 1
1367 2 1.6753596179251165e+01 1.4436366992096641e+01 3.8874201431342690e+00 0 0 1
1787 2 2.8591278415300283e+00 1.6443759761760525e+01 7.2938664925008068e+00 0 0 1
961 1 2.5505641495375824e+00 6.2686171907365944e+00 5.9681416145532404e+00 0 0 0
1806 2 9.8495412607775421e+00 1.0760107472997779e+01 6.3343649889524043e+00 0 0 1
1771 1 1.3116301741330092e+01 1.3030371263811896e+01 5.0220067861282480e+00 0 0 0
952 1 1.8587701586168400e+01 1.8849464374611152e+01 1.5177249441069371e+00 0 0 1
1791 2 1.9821737165226221e+00 9.3287922056424364e+00 7.2768036810528569e-01 0 1 2
462 2 4.2732043189957514e+00 4.0184877834117643e+00 8.5801715425472214e+00 0 1 0
1748 2 2.6267450523444196e+00 1.1591443882792175e+01 5.5968314591464923e+00 0 -1 1
742 1 1.3695030573660430e+01 1.4162956643326893e+01 2.3506967729747972e+00 0 -1 0
723 2 1.2672463597072465e+01 1.6310857029016308e+01 5.3459179331025632e+00 0 0 0
1614 2 7.1962630590259504e+00 1.4897548911898637e+01 1.0943014762137189e+00 0 0 1
1299 2 1.3775906011651083e+01 1.3730795645041191e+01 7.5489254688236185e-01 0 -1 0
677 2 2.9701460914141120e+00 8.3330738946239880e+00 2.5921111167885140e+00 0 0 0
1525 1 7.3269382651855004e+00 1.8413150296746745e+00 9.0886477668170489e+00 0 1 1
886 1 1.3227801981661889e+01 2.2482089597933292e+00 8.3653398980445708e+00 0 0 0
274 1 9.2907810569995011e+00 1.7452100341710959e+00 1.1490748624245588e+00 0 0 0
1398 2 1.8546839081871177e+01 1.2347638222913488e+01 7.9508043605067638e+00 0 -1 1
526 1 1.9469393145712928e+01 1.1447430753691423e+01 4.9364736855367726e+00 0 0 0
1581 2 2.4245352221103222e-01 1.8727394903552547e+01 8.8534213520914573e+00 0 -1 0
1618 1 1.6378504301301284e+01 3.2845621508942959e+00 6.7687773569739491e+00 0 0 0
107 2 1.7067766794655338e+01 8.9176068566037152e+00 6.3577505525690636e+00 0 0 1
1375 1 5.9985165058477232e+00 1.8916956512639285e+01 6.8946097397186890e+00 0 0 1
907 1 3.5624826693343975e-01 1.9818267206051468e+00 8.6077454080568820e+00 0 1 0
733 1 1.7836996375692905e+01 1.8615179070148663e+01 7.8373444692412662e+00 0 0 0
1155 2 1.8882554687867017e+01 1.6368936347136554e+01 6.7988233894184811e+00 0 1 0
674 2 3.2358946939963973e+00 1.1419307975825410e+01 9.5223640972390662e+00 0 -1 0
1397 2 1.7606959351290591e+01 1.1363054819418130e+01 8.7227147856820153e+00 0 0 1
722 2 1.3588515394172704e+01 1.6861703207416834e+01 4.2668354317331501e+00 0 0 0
217 1 7.1022395626657060e+00 1.0046177333292365e+01 4.2784152258032337e+00 0 0 -1
1354 1 2.4376470476262631e+00 1.7472673429202157e+01 8.4371034825894753e-01 0 -1 2
93 2 1.0835203855023629e+01 8.9235967568094043e+00 7.7519023725999792e-01 0 0 0
1792 1 1.4098160751161165e+01 8.7950968819827349e+00 8.1436307839404591e+00 0 0 1
31 1 2.3484484265619754e+00 3.3413082302375718e+00 7.1288477556443404e+00 0 0 0
64 1 1.8050603802725160e+01 6.2199616061578213e+00 9.3711364387536256e-01 0 0 -1
743 2 1.4095066539526295e+01 1.5101453413612674e+01 2.3083166774974115e+00 0 -1 0
1138 1 2.9417576218529238e+00 1.7670750364735131e+01 3.6519311151251714e+00 0 -1 1
1383 2 1.8013605302890433e+01 5.0415877335165167e+00 7.0991053635016232e+00 0 0 0
1350 2 1.0715138368926896e+01 4.3932996174881636e+00 1.4227574744885394e+00 0 0 0
265 1 1.0539271231540507e+01 5.8424296007368026e+00 2.1380950271570767e-01 0 0 1
706 1 3.4232782443755352e+00 1.4528833838632433e+01 9.8515482159149261e+00 0 -1 0
1539 2 4.8868922106057744e-01 1.4010213040681144e+01 7.8042050618271297e-01 0 0 0
225 2 9.5790178702496798e-01 3.4861345056025765e+00 4.5693287338218829e+00 0 1 0
460 1 4.0641829843697428e+00 4.9589296292694875e+00 8.5529489114497235e+00 0 1 0
439 1 1.6939301227664265e+00 5.6705052939138803e+00 2.9900618627659044e+00 0 1 0
1822 1 1.4637143763774427e+01 4.3040754245496506e+00 2.5449810660001337e+00 0 0 1
1830 2 1.0333125161579433e+01 1.6659228978801863e+01 5.8770931636890440e+00 0 -1 0
67 1 4.5556476993045534e+00 2.3849592815553207e+00 9.2093352252531542e+00 0 0 0
20 2 1.4347095810003641e+00 9.8441518819763534e+00 4.9595729018849024e+00 1 0 0
440 2 1.3513118885323241e+00 5.3088768723987680e+00 3.8591674899526907e+00 0 1 0
872 2 7.1271006198947395e+00 1.8239695721034387e+01 1.8151360241027674e+00 0 0 0
479 2 1.5413278651932492e+01 1.6672037085255595e+00 5.6373959164290861e+00 0 1 -1
1761 2 5.1641473622711764e+00 2.1585683968632940e+00 5.6823404518522436e+00 1 0 1
1342 1 1.0593145386913477e+01 1.8953657792876422e+00 8.4736029093706815e+00 0 0 1
246 2 3.5034454834099602e+00 1.9348901168767537e+01 8.7417803019751474e+00 0 0 0
879 2 5.4391929020076386e+00 7.8210925287549697e+00 2.6433718711757757e+00 0 1 1
1593 2 1.5302238327964281e+01 1.6685592066430853e+01 2.0852431476461089e+00 0 0 1
1159 1 1.3021851169690466e+01 1.9268028265318275e+01 6.1184376747990266e+00 0 0 0
92 2 9.3473537065109440e+00 8.9142842236560274e+00 1.1985901627698565e+00 0 0 0
218 2 6.1526012302916540e+00 9.8443920568389913e+00 4.4294230190695503e+00 0 0 0
940 1 1.0589190798247563e+01 6.5514611779341161e+00 4.0033683222658167e+00 0 1 1
1619 2 1.6360680567653095e+01 3.2754074031911329e+00 7.6955795148136010e+00 0 0 0
744 2 1.4252817980210668e+01 1.3448319867534554e+01 2.7352257001104858e+00 0 -1 0
1139 2 2.6515541963121385e+00 1.7382509702844697e+01 2.7822326587992738e+00 0 -1 1
734 2 1.7312895258059033e+01 1.9166569013547981e+01 8.4461643266904805e+00 0 0 0
1620 2 1.7210527104722832e+01 2.7694537117449154e+00 6.6204021107878619e+00 0 0 0
73 1 1.8919202775647872e+01 9.3388009574277628e+00 6.9154096394066995e+00 0 0 0
1395 2 1.0073576599198216e+01 6.2199410949413214e-01 7.0424444499703753e+00 0 0 0
1520 2 9.4272531051220501e+00 5.2694151218946930e+00 7.8090147953724944e+00 0 0 1
321 2 7.6495485716881788e+00 1.4960272408458687e+01 4.8529999221211115e+00 0 -1 1
682 1 4.9996168348494114e+00 1.3889003391203877e+01 3.1276299109733654e+00 0 -1 0
36 2 6.4863505583492662e+00 1.3131169925514321e+01 6.2250585083714838e-01 0 -1 0
953 2 1.9341266827892035e+01 1.9473730922870903e+01 1.7864766715647287e+00 0 0 1
1208 2 1.9585766164562415e+01 1.8835888783325068e+01 7.9454804256117457e+00 0 0 0
897 2 1.4527683062553638e+01 3.4801968464782016e+00 9.2208426922511588e+00 1 0 0
1592 2 1.3897471009632877e+01 1.7149179039416250e+01 1.9043512255341206e+00 0 0 1
320 2 8.1647690941999311e+00 1.6336981313267675e+01 5.5804993732053827e+00 0 -1 1
705 2 3.9706765684342056e+00 1.5513009927498073e+01 5.9921279121611102e+00 0 0 -1
278 2 2.1655777763962476e+00 1.7806158748140525e+01 9.9985958749969033e+00 0 0 0
1815 2 1.8373594880837864e+01 9.6062026332603949e+00 4.6802675759240225e-01 0 1 1
1538 2 8.9584475631112737e-01 1.2692427140124932e+01 1.5385510945480516e+00 0 0 0
1613 2 8.0348519178818449e+00 1.4463192632412255e+01 2.4084163063670174e+00 0 0 1
680 2 6.3396957895341710e-01 9.2512441230649483e+00 7.5263513310404555e+00 0 0 0
478 1 1.5841985939273050e+01 1.0988506334591241e+00 5.0114425520741053e+00 0 1 -1
666 2 4.1998972969482899e+00 8.0538376735843489e+00 8.0468465016856232e+00 0 0 0
947 2 1.6283955187274522e+01 1.1811259860681625e+01 6.7399932236295603e+00 0 0 -1
84 2 5.1257416245330845e+00 1.6644892560700761e+01 8.2791081622061053e+00 0 0 -1
1127 2 9.7370389515953555e+00 8.7222493551948972e+00 8.9930247740559164e+00 0 1 1
527 2 1.8876224670410473e+01 1.1302921588115296e+01 4.1910966915488359e+00 0 0 0
1173 2 1.7807913698637584e+01 1.7107943942381663e+01 9.1643360264414504e+00 0 0 0
945 2 1.7820796214462526e+01 1.7886667856860651e+01 2.6124686568167088e+00 0 0 1
1759 1 4.1908111661012093e+00 2.2298252677871484e+00 5.4111429233739630e+00 0 0 1
954 2 1.8397749242443034e+01 1.9008367247056608e+01 5.6927997778532102e-01 0 0 1
1602 2 1.7951961300942553e+01 1.0903575522665944e+01 2.0035068019964681e+00 0 1 1
492 2 6.9053508505813701e+00 7.4106050321703352e+00 9.0001909809505491e+00 0 1 0
1540 1 1.0518455862668445e+00 8.4233072614990139e+00 5.6948945005481200e+00 0 0 1
1734 2 1.2309720727418648e+01 3.4340183493477472e+00 3.5900323802644490e-01 0 1 1
1175 2 1.6303629114597925e+01 1.1707908814686229e+01 3.3245833704097527e+00 0 0 0
903 2 1.4717357107338803e+01 1.2113603411094922e+00 3.5925487254313007e+00 0 1 0
1302 2 4.0213641026547533e+00 2.0515652130732956e-01 5.6708556786729358e-01 0 1 0
1811 2 1.8935507374422137e+01 2.2500396405211243e+00 2.3270637212961409e+00 0 0 1
876 2 4.0187334139754078e+00 1.0171467644221940e+01 4.5797856728035251e+00 0 0 0
685 1 6.5380995827970079e+00 1.3896281118137672e+01 7.7972910327694605e+00 0 0 0
76 1 1.5472199297041449e+01 7.3772075957284615e+00 4.4283204788764046e+00 0 0 0
887 2 1.3174537646275283e+01 2.3289965131087533e+00 7.4082114893212605e+00 0 0 0
434 2 1.7538401962844688e+01 2.5271220433863251e+00 9.5917575089935294e+00 0 1 0
102 2 1.9048432035519966e+01 1.9337630261414198e+01 4.9628453367347571e+00 0 0 0
960 2 1.2340721946875401e+01 6.3087055010352548e+00 7.6534710637447001e-01 0 1 0
536 2 1.0491330283019536e+01 1.3608625102568201e+01 3.5443325624912574e+00 0 0 0
1355 2 3.3659305855444406e+00 1.7660329958444844e+01 5.2749219356227539e-01 0 -1 2
223 1 9.4823339693106590e-01 4.2831781534617521e+00 5.0915510998767726e+00 0 1 0
1099 1 1.0091004687098126e+01 1.7029634173219744e+01 9.1336406519379238e+00 0 0 0
911 2 7.1690391623001943e+00 5.1908216063610571e+00 7.3947465838799582e+00 0 0 0
905 2 1.2062237734040700e+01 5.6955083418353709e+00 7.1665652709157461e+00 0 0 0
738 2 7.5019403719536530e+00 2.7828354647153981e+00 3.8197658112838000e+00 0 0 0
687 2 5.8137796028890207e+00 1.4496703951777254e+01 7.5519199615549315e+00 0 0 0
1568 2 7.6135208215611714e+00 1.7883240736823222e+01 6.9073567785633845e+00 0 -1 1
1757 2 1.5663831010341204e+01 1.8967516260018225e+01 5.6977707929469412e+00 0 0 1
248 2 8.3107570048664776e+00 1.0944516404850704e+01 7.8121517896032655e+00 0 0 -1
482 2 1.0039945710035514e+01 1.8699091877986390e+01 3.7970529551841001e+00 0 0 0
1301 2 3.9274826832766339e+00 1.6645885248989845e+00 5.4403185026201162e-01 0 1 0
1827 2 1.3939190011627973e+01 8.1485286590768924e-01 8.5674683559015552e+00 0 1 0
532 1 1.4918216972927954e+01 1.7336588119986352e+01 9.5500967322710668e+00 0 1 -1
280 1 3.1612358917678298e+00 6.2547198879239185e-01 3.5477798359118875e+00 0 0 0
279 2 3.7831742179053216e+00 1.7637395892985662e+01 1.0045969457307452e+01 0 0 0
702 2 1.1495296163764905e+01 1.0609233731352754e+01 4.2670303643808456e+00 0 0 -1
108 2 1.5815806478541163e+01 9.9401411580171235e+00 6.1820489874361781e+00 0 0 1
219 2 7.1843316810031181e+00 1.1010453020646604e+01 4.5111053867816056e+00 0 0 0
11 2 1.2203411236440092e+00 1.8667053753737758e+01 9.6414646451567043e-01 0 -1 0
684 2 4.6812605797394120e+00 1.3017921803013303e+01 3.1028107920530146e+00 0 -1 0
224 2 1.6122002114483944e+00 4.1602975046000719e+00 5.7752608146413698e+00 0 1 0
1331 2 1.7743729583443439e+01 1.4811179261769803e+01 1.0143675909040075e+01 0 0 0
58 1 6.8329604661254739e-01 5.8726582478040843e+00 8.1229112138422011e+00 0 0 -1
910 1 6.2789595558671021e+00 5.3130009381486865e+00 6.9887283243691680e+00 0 0 0
1309 1 1.6577813053515417e+01 1.0292220025378180e+00 9.3831706428396728e+00 0 1 0
1394 2 9.6399385248337008e+00 1.8942618476126153e+01 6.5540469478540935e+00 0 -1 0
1317 2 2.0143583482744004e-01 1.6721964932465600e+01 9.3028527312970049e+00 0 -1 0
286 1 1.8832887753729530e+01 1.5781068117720551e+01 5.1811757243018119e-01 0 0 0
703 1 3.5788648145068551e+00 1.4844263834558594e+01 5.4197971861938630e+00 0 0 -1
529 1 1.7521338782428948e+01 7.1291067118597953e+00 9.7703538985279241e+00 0 1 -1
104 2 1.4599918108480818e+01 4.6477993309246957e+00 4.3700422416181963e+00 0 0 0
1310 2 1.5875988315887652e+01 8.1231042918612417e-01 8.7664918171341011e+00 0 1 0
66 2 1.7229474904322345e+01 6.3866380752961627e+00 4.2882317373366535e-01 0 0 -1
1125 2 1.8757578816681985e+01 1.4880281492155267e+00 5.7639251365066215e+00 0 1 0
54 2 5.2247959796880181e+00 1.1282255493453725e+01 1.7322765723500042e+00 0 -1 0
1789 1 2.0573158247358250e+00 9.7861290804804604e+00 1.5676886406979633e+00 0 1 2
1161 2 1.3019676466174962e+01 1.8329483225368016e+01 5.7741727809295869e+00 0 0 0
77 2 1.5782196577509248e+01 7.9750877277679013e+00 5.2225493234716298e+00 0 0 0
690 2 1.6734962037581184e+01 1.5444779780185586e+01 7.6931577668262126e+00 0 -1 0
959 2 1.3251579487900965e+01 7.0903855276257888e+00 1.7675532954432460e+00 0 1 0
653 2 6.4833502441283990e+00 1.1201573813970078e+00 2.8982771106933138e+00 0 0 0
904 1 1.2047964643359780e+01 5.4144258417617612e+00 6.2288575467794249e+00 0 0 0
289 1 1.1986899417168249e+01 1.0248860450764655e+01 7.2176684143778651e+00 0 0 -1
65 2 1.7807264403265801e+01 5.5142671676526156e+00 1.6403870318815474e+00 0 0 -1
962 2 3.3467842848175162e+00 6.7118550797644696e+00 6.3862845622390454e+00 0 0 0
892 1 1.6319866443803930e+00 1.9254092178122029e+01 5.9338431850362241e+00 0 -1 0
1153 1 1.8335514114376810e+01 1.5602161117982423e+01 7.1526583864220408e+00 0 1 0
1382 2 1.9200033814686442e+01 5.3585563503023028e+00 8.0590760300492637e+00 0 0 0
688 1 1.5828362027474586e+01 1.5307979963904016e+01 8.0113049731325283e+00 0 -1 0
433 1 1.7940831126171457e+01 3.3396212705835868e+00 9.9727802201168121e+00 0 1 -1
1085 2 9.7697022941609308e+00 8.3960779651385025e+00 4.3706472275598349e+00 0 0 0
83 2 4.2001892364232125e+00 1.5491723645271174e+01 8.5891686228405852e+00 0 0 -1
489 2 6.6193117246258026e+00 1.3266968225042792e+01 4.3916763277623856e+00 0 1 -1
700 1 1.2404187347636254e+01 1.0464409289498438e+01 4.4071745990073987e+00 0 0 -1
1535 2 1.2959350480679756e+01 8.8473400108167137e+00 3.5792479665243504e+00 0 -1 0
1181 2 7.3554336579459356e+00 2.7517124070561039e+00 5.9176597746020301e+00 0 1 0
943 1 1.7450964860643381e+01 1.7442122449644916e+01 3.4324647992564929e+00 0 0 1
484 1 1.2385208887460090e+01 9.4970213088294937e+00 8.1626694379057479e-02 0 0 0
1569 2 8.8184424320063641e+00 1.7303758974647650e+01 7.6803111483987374e+00 0 -1 1
293 2 1.7027492944697460e+01 9.1716834076295530e+00 9.5133165542185161e+00 0 -1 -1
1521 2 8.9646160580364977e+00 4.7579891000799392e+00 9.1315959896850440e+00 0 0 1
715 1 1.7319922176245971e+01 4.7292516440934609e+00 3.0754797847745148e+00 0 0 1
1601 2 1.7490249181037115e+01 9.5762620710964654e+00 2.8685311390226786e+00 0 1 1
1825 1 1.4468547306182693e+01 5.5001538578054957e-03 8.2994296146913999e+00 0 1 1
1823 2 1.4487078896716923e+01 3.4151603702509910e+00 2.3078167309977538e+00 0 0 1
1396 1 1.7643602745066651e+01 1.2156186453230108e+01 8.1710998108306772e+00 0 -1 1
1536 2 1.4042270104968502e+01 7.7228037250806825e+00 3.6565685553103524e+00 0 -1 0
528 2 1.9301377721675994e+01 1.2364750379652204e+01 5.0867344741636629e+00 0 0 0
958 1 1.3277254643475956e+01 6.3236899271287195e+00 1.0889414730921432e+00 0 1 0
1377 2 6.4250276172413336e+00 1.9655473231613374e+01 6.4310882525939599e+00 0 0 1
1154 2 1.8915835207036899e+01 1.5464403479572145e+01 7.9431602634595446e+00 0 1 0
1577 2 1.8910937111532540e+01 7.7461185666885966e+00 4.0494519118990837e+00 0 0 1
875 2 4.1931399650157664e+00 8.6084411876359699e+00 4.3167485228371918e+00 0 0 0
654 2 5.2318616490940988e+00 2.0153195429974775e+00 3.0576798169339385e+00 0 0 0
1300 1 3.4067358790528917e+00 9.3320484634932754e-01 9.4719455660773333e-01 0 1 0
106 1 1.6095835781462991e+01 8.9359731484334883e+00 6.3390316519826726e+00 0 0 0
1084 1 9.4784951127941106e+00 8.9222398388477906e+00 5.0975180173020753e+00 0 0 0
900 2 7.2204213614065553e+00 5.5909541914077945e+00 1.4259959355194669e+00 0 0 0
488 2 7.6280342523473985e+00 1.2697949562301730e+01 5.3675109087198525e+00 0 1 -1
1308 2 6.5907009653614523e-01 2.1743569955244828e+00 2.3211141042340619e+00 0 0 1
1778 2 9.6714625596552484e+00 1.1789787257207923e+01 2.9139731496689976e+00 0 0 0
1813 1 1.9142009251334496e+01 1.0186172371845043e+01 6.1139025600682140e-01 0 1 1
1184 2 1.2877406479265396e+01 2.8234219045725752e+00 5.0850928702650364e+00 0 0 0
82 1 4.6923663513847806e+00 1.5897764661062210e+01 7.8605389075742282e+00 0 0 -1
1303 1 3.1949770410593730e+00 1.2821740629516279e+01 2.0662916462928832e-01 0 -1 1
442 1 8.2091235216831144e+00 5.3237575369572667e+00 3.3574698936445837e+00 0 1 0
290 2 1.2801624204092853e+01 9.8836642572741251e+00 7.6262366615402248e+00 0 0 -1
78 2 1.5215327106148848e+01 6.5220780780604146e+00 4.8866809009093854e+00 0 0 0
893 2 8.8385978073684168e-01 1.9466615624038379e+01 6.4895499822596427e+00 0 -1 0
101 2 1.8843524506695353e+01 5.5992206501001773e-01 3.7087816527153405e+00 0 0 0
894 2 2.3189394681618345e+00 1.9579247602524259e+01 6.4729429350081231e+00 0 -1 0
1777 1 1.0103886175377255e+01 1.1796512417418802e+01 3.8251183853707995e+00 0 1 0
972 2 1.1579880074857066e+01 1.3559665395752859e+01 7.4289274369683911e+00 0 0 0
1349 2 1.1299057299988240e+01 3.6016166493437138e+00 2.7413879615348939e+00 0 0 0
1176 2 1.5224242760591919e+01 1.1786614162788625e+01 4.2605116012222970e+00 0 0 0
948 2 1.4843039023306691e+01 1.2165528266747701e+01 6.4026831769969084e+00 0 0 -1
1583 2 1.0648262991817868e+01 1.6172259488153635e+01 3.6701681455364725e+00 0 0 0
1120 1 5.4975049946172607e+00 1.5418526204365994e+01 9.8436852132325925e-01 0 0 0
716 2 1.6356474507677056e+01 4.8058441644788985e+00 2.9035337218930302e+00 0 0 1
1749 2 3.2150179938816796e+00 1.3008161638943500e+01 5.8720107328311837e+00 0 0 1
48 2 1.5544371500008751e+01 1.4481775538270737e+01 5.9709253198731602e+00 0 -1 0
1152 2 1.0891926752596828e+00 1.5672222225002482e+01 3.7180120042500393e+00 0 0 0
1794 2 1.4811943305933333e+01 8.8157359408981328e+00 7.4615795499875999e+00 0 0 1
1143 2 1.7510811102305681e+01 1.3848690965726956e+01 1.8041771097781405e+00 0 0 0
942 2 1.1419767134753821e+01 6.6872422009857377e+00 3.5421015794009203e+00 0 1 1
1584 2 9.2145471435297406e+00 1.6547684590411624e+01 4.1145371554132222e+00 0 0 0
46 1 1.5447576358304497e+01 1.4502179026819352e+01 4.9848245925718206e+00 0 -1 0
89 2 1.4647238341768684e+01 1.4255220427402371e+01 8.1127466610743859e+00 0 0 0
1123 1 1.8860319081029584e+01 2.2742660083947581e+00 6.4324372766708935e+00 0 1 0
1128 2 9.5140537610844138e+00 1.0125076955725698e+01 9.7978807187473489e+00 0 1 1
669 2 7.1954976915709032e+00 9.2687339315537791e+00 1.5279398216826088e+00 0 0 0
1106 2 8.8602765481210728e+00 7.4716614318343346e+00 7.6908737134420457e+00 0 1 1
1534 1 1.3161746104693853e+01 7.9674171182141551e+00 3.2185453758065194e+00 0 -1 0
1786 1 1.9813421059624146e+00 1.6646381794638771e+01 6.8502552569615549e+00 0 0 1
444 2 7.3909461797430680e+00 5.7192885332532084e+00 3.7799831395432442e+00 0 1 0
735 2 1.7138398692960610e+01 1.8282010040131414e+01 7.2118115545592012e+00 0 0 0
1381 1 1.8244091540786808e+01 5.1446545204338188e+00 8.0340889323288138e+00 0 0 0
1580 2 3.3467652918817331e-01 4.9767523836236977e-01 8.5550424887728482e+00 0 0 0
1612 1 8.0305272287587997e+00 1.4468280227987128e+01 1.4282332924018293e+00 0 0 1
60 2 8.5135268567340450e-01 5.2835319363797195e+00 8.9093940443445412e+00 0 0 -1
1307 2 1.5813947451818278e+00 2.7203655259039090e+00 1.0694782412540516e+00 0 0 1
90 2 1.4079237844333118e+01 1.2794445423235546e+01 8.5596038868704376e+00 0 0 0
721 1 1.3523527935765777e+01 1.6746352072165369e+01 5.2442686830411427e+00 0 0 0
1324 1 1.0969809927418130e+01 1.2256561402823786e+01 9.5076092684996443e+00 0 -1 0
10 1 3.9662639875433570e-01 1.9164435716117342e+01 1.2709225715442232e+00 0 -1 0
946 1 1.5503502938091163e+01 1.1490113555852414e+01 6.2062131460563270e+00 0 0 -1
226 1 2.2364410900831100e+00 1.2610511407380855e+01 2.7623562058111366e+00 0 0 0
1805 2 9.8979678954905932e+00 1.2237322198110792e+01 6.6082164888140493e+00 0 0 1
1180 1 6.7365135274215540e+00 2.4424780123813683e+00 6.5717132731556287e+00 0 1 0
1558 1 1.2126509762976841e+01 2.2951029013919105e-01 1.5710733546804596e+00 0 1 1
1305 2 4.1297709636388973e+00 1.2990833673189966e+01 1.8187871278773055e-01 0 -1 1
268 1 1.9259479516727662e+01 1.4236005136344399e+01 5.0672552513263369e+00 0 0 0
1556 2 5.1960030273761717e+00 5.6374965909573360e+00 4.0851426636936106e+00 0 0 1
441 2 8.6962874161867942e-01 6.0540078953145402e+00 2.6586590293120000e+00 0 1 0
1773 2 1.2452123997150604e+01 1.3234759478133467e+01 5.7512049972877737e+00 0 0 0
963 2 1.9802213657019321e+00 6.1059941966094753e+00 6.7355523000587025e+00 0 0 0
59 2 5.8323657023911923e-01 6.7579055973267668e+00 8.5639837161640653e+00 0 0 -1
1140 2 2.1253128900146008e+00 1.7611065617308693e+01 4.2090911994460889e+00 0 -1 1
1368 2 1.7339700036481531e+01 1.5705071334542458e+01 3.2353710333216368e+00 0 0 1
319 1 7.7660485986389602e+00 1.5913282603698452e+01 4.7221190122421772e+00 0 -1 1
487 1 7.6070310635509326e+00 1.3264850257535629e+01 4.5423581954862335e+00 0 1 -1
1376 2 5.6886230441397956e+00 1.8363310832871900e+01 6.1579565857073630e+00 0 0 1