LAMMPS data file via write_data, version 15 Apr 2020, timestep = 200000

972 atoms
2 atom types

1.9420142789660133e-01 1.9796851572105211e+01 xlo xhi
1.6269764562191291e-01 1.9828355354380008e+01 ylo yhi
1.5164135345657925e-01 2.0649130646544073e+01 zlo zhi
1.1812492132446345e-01 1.5997401287344708e-02 -1.1063421216461124e-02 xy xz yz

Masses

1 16
2 2

Atoms # atomic

4 1 4.2102607586440257e+00 1.3917766662892483e+00 3.1013123528696576e+00 0 0 0
5 2 4.3641759110406930e+00 2.3326507813480322e+00 3.3067504361672544e+00 0 0 0
6 2 3.3761455728927121e+00 1.1141948964246904e+00 3.6146445347339897e+00 0 0 0
7 1 5.9815474314871500e+00 4.4123308321210430e+00 5.6414375509336558e+00 0 0 0
8 2 6.8486155065866710e+00 4.3600362051242429e+00 5.1990061948894883e+00 0 0 0
9 2 5.2912154761269328e+00 4.3499654388841789e+00 4.9417589554230794e+00 0 0 0
10 1 1.2932686311526056e+00 4.1749765844845843e+00 3.8297667979453709e+00 0 0 0
34 1 5.7282141209213577e+00 2.8632623928663592e+00 4.7655824311187800e-01 0 0 0
12 2 1.0709397500756879e+00 4.9308512562153064e+00 3.2335621702423136e+00 0 0 0
13 1 4.8073735446570574e+00 5.8485860892074788e+00 1.6817412296133170e+00 0 0 0
14 2 4.4779573341674350e+00 6.5350453638670469e+00 2.2920984769617183e+00 0 0 0
15 2 4.0357101143232725e+00 5.7120792633273982e+00 1.0596564006536915e+00 0 0 0
16 1 4.0869937572000428e+00 3.9628764302325536e+00 3.5566409332527877e+00 0 0 0
17 2 4.2446183810363269e+00 4.6763697230175376e+00 2.8692712766672122e+00 0 0 0
18 2 3.1244910610587731e+00 3.9655331508057663e+00 3.7750855017801648e+00 0 0 0
19 1 6.5604517131207229e-01 5.9822364810726976e+00 1.8345055900847338e+00 0 0 0
20 2 9.3961085575860614e-01 6.9001627661642599e+00 1.9445535700733816e+00 0 0 0
22 1 2.0738840963609526e+00 8.2196931394469586e-01 4.5449252141956666e+00 0 0 0
23 2 1.1107026527514257e+00 7.1369115601494892e-01 4.7878302589351378e+00 0 0 0
24 2 2.4716340499469664e+00 1.0587858816351954e+00 5.4285532085148667e+00 0 0 0
25 1 2.5738203804281530e+00 5.1390847852499979e+00 6.9156074994686501e+00 0 0 0
26 2 2.4928852759813553e+00 5.7570212981567801e+00 6.1357638092459030e+00 0 0 0
27 2 3.2409275778480957e+00 5.5714036119012595e+00 7.4911755547991934e+00 0 0 0
28 1 5.8376671354552707e+00 4.7470948530228219e-01 5.1507089505381236e+00 0 0 0
29 2 5.4980902524091340e+00 8.7511422356993174e-01 4.3286868363112347e+00 0 0 0
30 2 5.9393644250405471e+00 1.9208549424733782e+01 5.0240070717031617e+00 0 0 0
31 1 1.2212522314665091e+00 2.0335551111468675e+00 2.2178196987653869e+00 0 0 0
150 2 9.9409788811744928e+00 7.5148003649012844e+00 4.2313869286076429e+00 0 0 0
33 2 1.3237782433881287e+00 2.4767792334991605e+00 3.0992969639711898e+00 0 0 0
675 2 1.8677807535755611e+00 5.4676818722147260e+00 7.9440861835794352e-01 0 0 0
35 2 6.1611135665709726e+00 2.6475166737506495e+00 1.3373678429378200e+00 0 0 0
46 1 7.8689518873179152e+00 3.9793093446019561e+00 3.6601454929540078e+00 0 0 0
47 2 8.8431298355942793e+00 4.1241769801668173e+00 3.9115965357277003e+00 0 0 0
48 2 7.6594304028639346e+00 4.9025498579618620e+00 3.2456921215280654e+00 0 0 0
55 1 7.3727724889496864e+00 6.0841152670338694e+00 1.8214261194807806e+00 0 0 0
56 2 7.5547594612883184e+00 6.9389033710769743e+00 2.3340527059338978e+00 0 0 0
57 2 6.3859585040248046e+00 6.0082433078050572e+00 1.7386393352790486e+00 0 0 0
58 1 8.9253311403244115e+00 7.7818282050327015e-01 5.0381285467781147e+00 0 0 0
248 2 1.7752091149838365e+00 1.4277261512371277e+01 2.0517212808287648e+00 0 0 0
60 2 8.0666686831643517e+00 1.0413519181458435e+00 4.6987688119398889e+00 0 0 0
111 2 2.5446101166465769e+00 9.0898580487563887e+00 6.2568408940104803e-01 0 0 0
62 2 9.0641520658726726e+00 4.4710851456290737e+00 6.9556870186907389e+00 0 0 0
63 2 8.2765243557817492e+00 5.7106387640430052e+00 7.5844910916744208e+00 0 0 0
67 1 7.9483666954985148e+00 1.7976023526310270e+00 2.2896600010392447e+00 0 0 0
68 2 7.8924709222676910e+00 2.6322518233856855e+00 2.7559348482141690e+00 0 0 0
69 2 8.3475024216932621e+00 2.0015365223385468e+00 1.4046533421035721e+00 0 0 0
2 2 4.0209009207154729e+00 2.6160831350128908e+00 5.7192932559628717e-01 0 0 0
609 2 7.6046792448202254e+00 1.6255205990272387e+01 9.9358214745237188e+00 0 0 0
558 2 3.9819090114825020e+00 1.8152905159400532e+01 9.5310492416687467e+00 0 0 0
112 1 4.4251487477991418e+00 7.8399916627167805e+00 3.6780548692394932e+00 0 0 0
113 2 5.1795812301926984e+00 7.8426329094689926e+00 4.3235183063049991e+00 0 0 0
114 2 4.4784632289792992e+00 8.7866499166614673e+00 3.3360218776807349e+00 0 0 0
115 1 5.7323232900275265e+00 1.1277850015483937e+01 5.5366448372900834e+00 0 0 0
116 2 5.4419771285803025e+00 1.2164617721022163e+01 5.8037357518223844e+00 0 0 0
117 2 5.6091185669338142e+00 1.0768864149264582e+01 6.3768995388265850e+00 0 0 0
118 1 1.5118646709645898e+00 1.0184703113954736e+01 3.8915025117359505e+00 0 0 0
500 2 7.4920407431348588e+00 9.5189597168896505e+00 9.8460142344851711e+00 0 0 0
120 2 2.4650890206061598e+00 1.0440306090791541e+01 3.8815930228241915e+00 0 0 0
121 1 4.7726152839312714e+00 1.2677543151628599e+01 1.5902757288903029e+00 0 0 0
122 2 5.7471722910191980e+00 1.2703368685227803e+01 1.4866982485615932e+00 0 0 0
123 2 4.4038534685324073e+00 1.3109795626831842e+01 8.0371749172632823e-01 0 0 0
124 1 4.1410411677199566e+00 1.0608293785846779e+01 3.4336926294230938e+00 0 0 0
125 2 4.4149191617755994e+00 1.1318618576214622e+01 2.8424246729621396e+00 0 0 0
126 2 4.6538889108048318e+00 1.0795498774158029e+01 4.1984031591251316e+00 0 0 0
127 1 1.3537374607483259e+00 1.2432613157393694e+01 1.7057895683736555e+00 0 0 0
128 2 2.0049696371183243e+00 1.2254942977301969e+01 9.4174208242595903e-01 0 0 0
129 2 1.3189990088152539e+00 1.1693365764280939e+01 2.3263479369609437e+00 0 0 0
130 1 2.0851812882358329e+00 7.3479127898364975e+00 5.0904545765559330e+00 0 0 0
131 2 2.8010440459275823e+00 7.3830033816100586e+00 4.4113249243333614e+00 0 0 0
132 2 2.3603628202408387e+00 8.0997501831754448e+00 5.6586195682964906e+00 0 0 0
133 1 2.4656667846575893e+00 1.1995801463129506e+01 7.0436825791565694e+00 0 0 0
134 2 1.7357310500513241e+00 1.2173076609767545e+01 7.6798194702833147e+00 0 0 0
135 2 2.2013821645001337e+00 1.2597685883229754e+01 6.2988223832120349e+00 0 0 0
136 1 6.1564465226651555e+00 7.1116431034921757e+00 5.6633868750425416e+00 0 0 0
137 2 6.0163958491170213e+00 6.1929231903826620e+00 5.6509147733175187e+00 0 0 0
138 2 7.1080570441159212e+00 7.2046001568993114e+00 5.4735526680644284e+00 0 0 0
139 1 1.5807402830091768e+00 8.4477804932406695e+00 1.7999584192876419e+00 0 0 0
140 2 1.5367823392814912e+00 8.8964740845035202e+00 2.6784260975139347e+00 0 0 0
11 2 6.6259122632343703e-01 4.3229214660891886e+00 4.5485713832026669e+00 0 0 0
147 2 8.6155845325478921e+00 9.4564367124210573e+00 8.8722524925348145e-01 0 0 0
463 1 1.0130957364482658e+00 8.5633103978872942e+00 9.0469147743786458e+00 0 0 0
154 1 7.9473523889367783e+00 1.0900850590513754e+01 3.9567949626991314e+00 0 0 0
155 2 7.4145827797515960e+00 1.0929604252781962e+01 4.7396727861671266e+00 0 0 0
156 2 8.8943874686450819e+00 1.0765512508583928e+01 4.0738405694357969e+00 0 0 0
163 1 7.4448596838947347e+00 1.2785987306436791e+01 1.8911199695441558e+00 0 0 0
164 2 7.7140601683821952e+00 1.2279621249494321e+01 2.6770615225391046e+00 0 0 0
165 2 8.0517871158684891e+00 1.2430611470280484e+01 1.1334723690103838e+00 0 0 0
166 1 8.6477184976707804e+00 7.4031166468863914e+00 5.5619094586818578e+00 0 0 0
167 2 8.8490255907833308e+00 8.1515494899276035e+00 6.1084203349667243e+00 0 0 0
168 2 8.9653857805674217e+00 6.5698036380131217e+00 6.0044912469407645e+00 0 0 0
169 1 9.0112942162453002e+00 1.2371183081163069e+01 6.7072986571635278e+00 0 0 0
171 2 8.9738275574974065e+00 1.3148679284867479e+01 6.1128295275257809e+00 0 0 0
175 1 7.4882372982826775e+00 8.7826469475402504e+00 2.3788799836126540e+00 0 0 0
176 2 7.6305790979260193e+00 9.5493415652330818e+00 2.9832355828580637e+00 0 0 0
177 2 6.6946267250104761e+00 9.1198623000106771e+00 1.9311763172078387e+00 0 0 0
450 2 4.3505427840973070e+00 1.1376220354603383e+01 9.7378315188240023e+00 0 0 0
3 2 2.5345395295732636e+00 2.4275401277806874e+00 1.1556208609256020e+00 0 0 0
392 2 7.2411318432328846e+00 2.7895534271741100e+00 9.8775549490197836e+00 0 0 0
342 2 4.0621235941569633e+00 3.2007729671350389e+00 1.0092817420744073e+01 0 0 0
556 1 3.8033960396670916e+00 1.7554933234411209e+01 1.0318341334107325e+01 0 0 0
220 1 4.1911457520562081e+00 1.4225150157153033e+01 3.5999614430882034e+00 0 0 0
221 2 4.1429392590915981e+00 1.5191707662438311e+01 3.3463998842918157e+00 0 0 0
222 2 4.5176715870113524e+00 1.3775020518240893e+01 2.7496440114586815e+00 0 0 0
223 1 5.9611857127441077e+00 1.7524351734754042e+01 5.3907619534008733e+00 0 0 0
224 2 6.8348649907329966e+00 1.7363576070132702e+01 4.9966618488220371e+00 0 0 0
225 2 5.8450858603474138e+00 1.7061039599058788e+01 6.2870483819530598e+00 0 0 0
226 1 1.4076523594043864e+00 1.7245267448770576e+01 3.8499238574313015e+00 0 0 0
227 2 1.1781653435764103e+00 1.8009425667142359e+01 3.3153314170467372e+00 0 0 0
228 2 1.4079173741599011e+00 1.6483799369168487e+01 3.1827554525968211e+00 0 0 0
229 1 4.7473439127593577e+00 1.8925218367685844e+01 1.4773728864624471e+00 0 0 0
230 2 4.4320384858166042e+00 1.8296349413244371e+01 2.1597511220951717e+00 0 0 0
231 2 4.6188999540461717e+00 1.9783539228534785e+01 1.9403298475559612e+00 0 -1 0
232 1 4.1911339371071712e+00 1.6975409410400104e+01 3.4446552868989966e+00 0 0 0
233 2 3.2717073185375476e+00 1.7071814185120438e+01 3.6242252539928397e+00 0 0 0
234 2 4.7894569424399061e+00 1.7120738189758463e+01 4.1874615255969720e+00 0 0 0
235 1 1.1009782229921763e+00 1.9154326813389410e+01 1.7623084962105924e+00 0 0 0
236 2 1.4298288385909352e+00 3.3772535411683674e-01 1.9992556075721661e+00 0 0 0
237 2 1.5840069517219306e+00 1.8635472753308711e+01 1.0695802746935414e+00 0 0 0
238 1 1.8759938309265105e+00 1.3662459275093669e+01 5.0274787627831854e+00 0 0 0
239 2 2.3563446982325633e+00 1.4037186327034091e+01 4.2690054964852822e+00 0 0 0
240 2 9.3094236609201830e-01 1.3621702493281537e+01 4.9042371089040806e+00 0 0 0
241 1 2.6540004358244076e+00 1.8312288598295844e+01 6.5272106953505658e+00 0 0 0
242 2 2.6357279070174435e+00 1.8465037048551288e+01 5.5528229597044225e+00 0 0 0
243 2 2.6433532420504520e+00 1.7337050546615849e+01 6.6956183585602771e+00 0 0 0
244 1 6.0537395568418004e+00 1.4051817266515407e+01 5.5877257441543140e+00 0 0 0
245 2 5.8174837990420079e+00 1.4519677481491309e+01 6.4292688239748284e+00 0 0 0
246 2 5.3877552656117045e+00 1.4213335177918406e+01 4.8484638303456702e+00 0 0 0
247 1 1.7957567406203789e+00 1.5220782819402817e+01 1.9915573601473231e+00 0 0 0
170 2 9.7524470005897879e+00 1.2569333607230055e+01 7.2768835382241868e+00 0 0 0
249 2 2.3304664529271535e+00 1.5375879064977994e+01 1.0988906425473921e+00 0 0 0
251 2 6.6432558200985694e+00 1.5341011221860054e+01 9.3757657176174336e-01 0 0 0
59 2 9.5966590104832434e+00 1.0484184513040087e+00 4.4100203691721305e+00 0 0 0
262 1 8.3845758809497237e+00 1.7467596491703631e+01 3.8889642432811167e+00 0 0 0
263 2 9.3671238945901916e+00 1.7677444321681456e+01 3.6876315655422660e+00 0 0 0
264 2 7.8898119461816032e+00 1.7942923240047634e+01 3.2092486335555082e+00 0 0 0
271 1 7.5403006864946311e+00 1.8961409666474189e+01 1.8328568759019086e+00 0 0 0
272 2 7.5651237744909041e+00 3.0033660623311442e-01 2.1080408776155704e+00 0 0 0
273 2 6.5898382558831514e+00 1.9009029173135389e+01 1.5416740880842801e+00 0 0 0
274 1 8.8333887593438583e+00 1.4611831906241369e+01 5.0152154056163107e+00 0 0 0
275 2 8.8666528196861734e+00 1.5165466602678643e+01 5.8715918520385229e+00 0 0 0
276 2 7.9282591813258785e+00 1.4372799205415923e+01 4.8668719261387290e+00 0 0 0
277 1 9.4521714394746326e+00 1.8461208606611926e+01 7.0263643840678354e+00 0 0 0
278 2 9.2790988983894280e+00 1.8813238885576105e+01 6.1351404297093550e+00 0 0 0
279 2 8.7619044434705646e+00 1.8945655410129255e+01 7.5272633678015390e+00 0 0 0
283 1 8.0513564817526557e+00 1.5272750955924149e+01 2.0645062173437840e+00 0 0 0
284 2 8.1828769751632322e+00 1.5801173284766234e+01 2.8511082152713287e+00 0 0 0
285 2 7.9450207375879005e+00 1.4314048409567102e+01 2.2584322795266369e+00 0 0 0
469 1 8.9606053304937276e+00 9.6135085785426320e+00 7.1578842717138214e+00 0 0 0
325 1 2.9854172476734142e+00 2.4661460459838547e+00 6.7367755617717417e+00 0 0 0
326 2 2.8008689974019445e+00 3.3869177638168679e+00 6.6129273026011841e+00 0 0 0
327 2 3.9174295593327479e+00 2.4088723861270664e+00 6.8915925580712782e+00 0 0 0
329 2 4.4271426617024066e+00 9.3576982821983812e-01 9.4363532478968501e+00 0 0 0
337 1 4.4803306383109316e+00 5.6694858637208716e+00 8.5760986034432438e+00 0 0 0
338 2 4.2480890082410774e+00 5.1692696583978739e+00 9.3837440839667785e+00 0 0 0
339 2 4.2726844371215202e+00 6.5456599256603401e+00 8.9913638997610992e+00 0 0 0
343 1 7.7850507778374745e-01 5.7531693550727363e+00 8.5626806069015213e+00 0 0 0
344 2 1.0540566117113368e+00 5.1009117890462665e+00 9.3786911606961478e+00 0 0 0
345 2 1.3979147053146279e+00 5.3835732283954592e+00 7.8824323262971889e+00 0 0 0
355 1 1.0903959858284495e+00 2.2337769616787302e+00 8.9509132712265647e+00 0 0 0
557 2 4.2275421890534259e+00 1.6723054126524829e+01 1.0224275788611273e+01 0 0 0
357 2 1.8341518363804128e+00 2.2127763710069090e+00 8.3035821091303692e+00 0 0 0
358 1 5.5522177635041006e+00 2.3111485404882020e+00 7.0122230446561584e+00 0 0 0
359 2 5.9143099905476673e+00 3.1793297396785030e+00 6.6474178478592068e+00 0 0 0
360 2 5.8178368727414931e+00 1.5591956611546027e+00 6.3787504424142236e+00 0 0 0
361 1 9.1036625443785741e+00 2.7325552044351262e+00 6.8991029878295160e+00 0 0 0
362 2 8.7827084704433798e+00 2.1107308316919449e+00 6.2197427499109565e+00 0 0 0
363 2 8.6500735316041659e+00 2.5205380190825419e+00 7.7126831157391074e+00 0 0 0
254 2 9.1724946186202470e+00 1.5463373701184260e+01 8.0480480260077314e-01 0 0 0
379 1 7.1590352652012994e+00 6.1967061996844874e+00 8.9121784120030672e+00 0 0 0
380 2 7.2273549700973936e+00 7.0627913865607290e+00 9.3032697636334980e+00 0 0 0
381 2 6.1659205671617681e+00 5.9845805736025142e+00 8.8899124820146813e+00 0 0 0
391 1 7.3420120457783620e+00 2.1646343587641703e+00 9.1374462238695440e+00 0 0 0
141 2 7.0616207558896826e-01 8.6899649907031051e+00 1.3424065397992027e+00 0 0 0
393 2 6.5570547858370443e+00 2.3030483628542902e+00 8.5707095151240971e+00 0 0 0
479 2 7.8723456862283090e+00 1.1581902102269874e+01 9.8683952375308177e+00 0 0 0
433 1 2.5623913764367998e+00 9.3053458122484454e+00 7.0540127119885696e+00 0 0 0
434 2 2.4120423959038799e+00 1.0261729651056250e+01 6.8395646800858181e+00 0 0 0
435 2 2.1015595408202463e+00 9.1009017241320258e+00 7.8884918191162523e+00 0 0 0
818 2 1.0036286690585818e+01 1.2505737437118865e+01 5.3497654039905440e-01 0 0 0
445 1 4.4784859909765311e+00 1.2449327143200721e+01 8.5006832573893316e+00 0 0 0
446 2 4.2292305482111070e+00 1.3371811091841272e+01 8.8483419796380574e+00 0 0 0
447 2 3.7994322183350375e+00 1.2183454526626681e+01 7.8141393189134458e+00 0 0 0
32 2 4.6911339370153354e-01 2.4942658074701840e+00 1.8306471951284478e+00 0 0 0
451 1 6.4439846461984018e-01 1.2780053353142868e+01 8.9298231764002676e+00 0 0 0
452 2 7.3823352495309014e-01 1.3720546308903566e+01 9.0794743736471943e+00 0 0 0
210 2 3.0382626107789229e-01 7.4959898119438106e+00 5.1112758291741827e+00 0 0 0
465 2 1.0165236845751959e+00 7.5748560610182070e+00 9.0777380828858600e+00 0 0 0
466 1 5.0767145063442571e+00 9.2532008805128392e+00 7.2885229252053509e+00 0 0 0
467 2 5.5322695005722355e+00 8.5434254740976119e+00 6.6992100045499399e+00 0 0 0
468 2 4.0880183927898859e+00 9.1230407877412745e+00 7.1860643416824992e+00 0 0 0
61 1 9.1332902490019858e+00 5.4122501413294977e+00 7.2722840246528504e+00 0 0 0
470 2 8.6603814871879514e+00 1.0545382971508419e+01 6.9776443643246431e+00 0 0 0
471 2 8.2568001522423522e+00 9.4128272333910470e+00 7.9083688486275197e+00 0 0 0
573 2 7.6405859286744104e-01 1.6318727880698297e+01 9.6112218782081467e+00 0 0 0
487 1 7.0075495262198855e+00 1.2868077085594738e+01 8.6237979546566876e+00 0 0 0
488 2 7.6246870775399769e+00 1.2857467936415654e+01 7.8869773785591493e+00 0 0 0
489 2 6.0680414346767488e+00 1.2672955965402371e+01 8.3983122248868369e+00 0 0 0
499 1 7.3197484538014281e+00 8.9160857093884314e+00 9.0652028430291587e+00 0 0 0
356 2 8.7911447561588496e-01 1.3135039923660254e+00 9.0601868763759494e+00 0 0 0
501 2 6.3719654958823639e+00 8.9234456575698022e+00 8.6656475077117694e+00 0 0 0
335 2 1.1838615197121838e+00 3.2349946558850333e+00 1.0357400877182046e+01 0 0 0
544 1 4.1068257125611627e+00 1.4718870445172719e+01 1.0080040469718067e+01 0 0 0
541 1 2.5625718322306352e+00 1.5698517945704317e+01 7.2002713212698772e+00 0 0 0
542 2 1.9467962763274369e+00 1.5486862285868868e+01 7.9448336934151316e+00 0 0 0
543 2 2.4262606853470454e+00 1.5063339018553075e+01 6.4857076018780759e+00 0 0 0
553 1 4.6479200267096594e+00 1.9088787889136896e+01 8.3098249679192122e+00 0 0 0
554 2 5.5676503008320672e+00 1.9003482342977684e+01 7.9588502747377978e+00 0 0 0
555 2 4.0902092398880878e+00 1.8878995054982248e+01 7.5285563801954529e+00 0 0 0
323 2 3.8459935019768421e-01 1.5572442978083970e+01 1.2185842073235738e+00 1 0 0
559 1 8.2959762941140192e-01 1.9194921876245985e+01 8.4013492148308906e+00 0 0 0
560 2 1.3904835633949233e+00 1.9050282383107657e+01 7.7014372079835924e+00 0 0 0
561 2 1.1189155136948448e+00 1.8666302520133165e+01 9.1488631424292173e+00 0 0 0
571 1 5.2620394996857511e-01 1.5581990935709392e+01 9.0225036323183669e+00 0 0 0
574 1 5.2867672206279401e+00 1.5830820947190274e+01 7.3546287559319872e+00 0 0 0
575 2 5.8559869678074588e+00 1.5885809532231075e+01 8.1497920489443665e+00 0 0 0
576 2 4.4134712204076765e+00 1.5706676212346594e+01 7.6619922056201188e+00 0 0 0
577 1 9.0233893003750829e+00 1.5919682110695868e+01 7.3200921605676745e+00 0 0 0
578 2 9.1042225987376888e+00 1.6900531672760337e+01 7.2529651408991933e+00 0 0 0
579 2 8.3572736425977059e+00 1.5815491319232175e+01 7.9966640300165279e+00 0 0 0
437 2 4.0426877542736266e+00 8.8501348965398297e+00 1.0342419499171529e+01 0 0 0
595 1 7.4307301020438938e+00 1.9332154188286815e+01 8.5495603055934879e+00 0 0 0
596 2 7.2533037070185093e+00 6.0791627614632748e-01 8.8540980361541024e+00 0 0 0
597 2 7.4706811476630097e+00 1.8771989207611931e+01 9.3714703318673944e+00 0 0 0
607 1 7.0468900853336836e+00 1.5719673319021352e+01 9.2893708128142478e+00 0 0 0
608 2 7.0745839343857524e+00 1.4731168477729755e+01 9.5616966995016455e+00 0 0 0
444 2 1.1111770906751590e+00 1.1666378365799813e+01 1.0092958949828805e+01 0 0 0
119 2 1.0641581421725292e+00 1.0518755226086979e+01 4.6808375758126033e+00 0 0 0
142 1 5.4755494572119670e+00 9.5011416003825531e+00 4.7936794548153294e-01 0 0 0
250 1 5.9485887316985462e+00 1.5578779131198740e+01 2.9057581576656222e-01 0 0 0
1 1 3.0501881737510153e+00 2.7546625409479448e+00 3.4394338696167115e-01 0 0 0
443 2 1.1375722859879431e+00 1.0088553606172594e+01 1.0051018241858682e+01 0 0 0
328 1 4.2612385641543291e+00 1.3669975729835695e+00 1.0321757612861672e+01 0 0 0
927 2 8.5391416806776022e+00 1.8367698992801728e+01 5.6446359632119436e-01 0 0 0
711 2 8.6383090711568560e+00 5.3560267822157250e+00 3.3752585181431793e-01 0 0 0
372 2 8.0457569580705730e+00 4.9549838529906465e+00 1.0241859321705869e+01 0 0 0
673 1 2.6361196584672455e+00 5.3734229559588691e+00 1.9491486233027422e-01 0 0 1
218 2 4.1606519471542480e+00 1.5413192396408819e+01 3.1950853968475845e-01 0 0 0
144 2 5.7932947659478673e+00 1.0456426955581547e+01 1.5663444363952156e-01 0 0 1
674 2 2.8287743473603477e+00 4.4195678816542223e+00 2.7377433300024484e-01 0 0 1
891 2 3.6257773435803822e+00 1.8535038061164478e+01 2.8356827218952940e-01 0 0 0
143 2 4.5157473732439364e+00 9.5412910901419981e+00 4.1837103791871660e-01 0 0 0
533 2 4.6964802792682914e-01 7.6117434075377872e+00 1.2007174443551893e+01 0 0 0
370 1 7.9953968258239723e+00 4.0742451504859361e+00 1.0764742305146120e+01 0 0 0
782 2 2.7920465580284710e+00 1.1221508656682827e+01 1.9938614651204350e+01 0 0 0
836 2 3.0188468098188925e-01 1.1362070208478485e+01 1.8799486401114901e+01 0 0 0
426 2 4.0984356346005768e-01 9.5702571912612044e-01 1.1940709157360812e+01 0 0 0
889 1 2.8792271099354374e+00 1.8228787078380250e+01 2.0113894570302229e+01 0 0 0
331 1 5.9326347628388589e+00 4.7465410538348767e+00 1.2402959193743614e+01 0 0 0
332 2 6.7178208970381279e+00 4.5653270559247776e+00 1.1851569318223389e+01 0 0 0
333 2 5.1507009194503866e+00 4.5411913108946278e+00 1.1689987979740391e+01 0 0 0
883 1 1.1148241267813495e+00 1.9044232748246763e+01 1.5552078823158892e+01 0 0 0
341 2 3.2034269791161250e+00 4.1497599531801548e+00 1.1062977000132268e+01 0 0 0
602 2 1.0101281872408025e+01 1.8796151647227667e+01 1.3906584499921546e+01 0 0 0
346 1 2.2287815701225986e+00 9.6236650042052796e-01 1.1914834501994038e+01 0 0 0
347 2 2.7965960649259278e+00 8.6470108480205043e-01 1.1165657605941668e+01 0 0 0
348 2 2.5025694050179497e+00 1.8076979920916254e+00 1.2345110183829862e+01 0 0 0
349 1 3.1189705095028231e+00 5.4560106914484674e+00 1.3632136961348019e+01 0 0 0
350 2 2.6639938407675512e+00 6.0601405227385943e+00 1.2973848009459763e+01 0 0 0
351 2 2.6671264678661131e+00 4.5675167114431492e+00 1.3622729177595476e+01 0 0 0
352 1 6.2122431582558502e+00 6.6100228495759317e-01 1.2376686408769299e+01 0 0 0
353 2 7.0539031389397744e+00 1.0364013779195118e+00 1.2020853799881305e+01 0 0 0
354 2 6.1535635562983311e+00 1.9379924665348000e+01 1.2108702567936353e+01 0 0 0
680 2 2.2090532804144589e-01 2.2344983324833940e+00 1.5142412928054137e+01 0 0 0
382 1 8.8515161729209684e+00 1.2356445151460200e+00 1.1890401248979927e+01 0 0 0
383 2 9.0727092273418393e+00 3.3145916546855358e-01 1.2235834632396925e+01 0 0 0
442 1 1.2913632941059758e+00 1.0862003040229377e+01 1.0617803371665653e+01 0 0 0
385 1 9.5398756837516849e+00 5.8083331782665351e+00 1.3607395786939165e+01 0 0 0
386 2 9.5736751042823709e+00 4.8592372217094573e+00 1.3740281120380514e+01 0 0 0
387 2 8.7582853828202687e+00 6.0168101683099176e+00 1.4252906644461357e+01 0 0 0
545 2 3.3565299167907412e+00 1.4547556233554310e+01 1.0694106303069153e+01 0 0 0
384 2 9.5175852468006017e+00 1.3885758466759710e+00 1.1199816524206129e+01 0 0 0
439 1 5.8707781747222159e+00 1.1325963547851270e+01 1.2395753223039071e+01 0 0 0
440 2 6.0375765966228281e+00 1.2253750747459327e+01 1.2364702606205494e+01 0 0 0
441 2 5.1687104000729605e+00 1.1199150563443190e+01 1.1717237098976742e+01 0 0 0
728 2 3.1690608330697645e-01 4.3909463225978467e+00 1.8726128559683847e+01 0 0 0
454 1 2.2365782705572541e+00 7.3627660786366729e+00 1.2243589237061865e+01 0 0 0
455 2 2.8195130321600179e+00 7.4851634908112734e+00 1.1487966003192996e+01 0 0 0
456 2 2.4362306019032589e+00 8.1592031903429643e+00 1.2812607452910591e+01 0 0 0
457 1 2.5965922246832216e+00 1.2159023203183283e+01 1.3683848056165351e+01 0 0 0
458 2 3.5389377486758034e+00 1.2314756224070583e+01 1.4003776491688752e+01 0 0 0
459 2 2.1731385291666334e+00 1.2361386086137353e+01 1.4485280915716610e+01 0 0 0
460 1 6.0278984577346533e+00 7.6357834836979110e+00 1.2405584755582456e+01 0 0 0
461 2 5.8631697029857044e+00 6.6499367338321722e+00 1.2489399589090395e+01 0 0 0
462 2 7.0009845574883514e+00 7.7054434567728540e+00 1.2216643199899666e+01 0 0 0
513 2 3.2062197935896020e-01 1.0992284707599360e+01 1.2060368463328075e+01 0 0 0
480 2 7.4150921467585995e+00 1.1278392668324331e+01 1.1197219447339277e+01 0 0 0
749 2 5.6634058243633922e-01 1.4188563849442355e+00 1.8734790725534385e+01 0 0 0
490 1 8.6436677184572979e+00 7.7310711382420720e+00 1.1947026248520711e+01 0 0 0
491 2 8.8879251972026267e+00 6.8409780153871553e+00 1.2285060607543002e+01 0 0 0
492 2 8.7712585108099734e+00 8.3196170933075315e+00 1.2752714045157735e+01 0 0 0
493 1 9.4722837665564601e+00 1.2424338682316744e+01 1.3591661624683228e+01 0 0 0
494 2 8.7763723665835940e+00 1.2659837743863399e+01 1.4207798212019416e+01 0 0 0
495 2 9.3215645446563347e+00 1.2949462440513740e+01 1.2747998753936772e+01 0 0 0
474 2 9.7785349544214277e+00 8.1075162049172107e+00 1.0894089866092280e+01 0 0 0
707 2 9.7398567469074511e+00 5.2755122145384714e-01 1.7803954200084437e+01 0 0 0
925 1 9.2205931965343666e+00 1.8281671837339317e+01 2.0390440499049344e+01 0 0 0
876 2 1.5381564046817446e+00 1.7253765636867321e+01 1.8324006289703810e+01 0 0 0
110 2 2.5576064302585868e+00 8.5850325719668614e+00 1.9684322623437076e+01 0 0 0
599 2 9.3510232357545622e+00 1.4487375404895877e+01 1.0954884354281713e+01 0 0 0
547 1 6.0143041329305991e+00 1.7726042818825704e+01 1.2105324714573330e+01 0 0 0
548 2 5.3241398903747745e+00 1.7583600813901818e+01 1.1459944724405190e+01 0 0 0
549 2 5.7458916212791671e+00 1.7213130761561416e+01 1.2911339789318314e+01 0 0 0
551 2 7.3814260764701112e-01 1.7838586565417877e+01 1.1434793502109079e+01 0 0 0
562 1 2.1499247167447093e+00 1.4022417961559308e+01 1.1665918918011709e+01 0 0 0
563 2 1.1347945376618580e+00 1.4147148102291279e+01 1.1727158025845082e+01 0 0 0
564 2 2.2646832849055678e+00 1.3328460204875451e+01 1.2310819992763529e+01 0 0 0
565 1 2.6956207285733766e+00 1.8423500929571965e+01 1.3559806156946683e+01 0 0 0
566 2 2.6153198720220501e+00 1.9124578132892204e+01 1.2868240982039508e+01 0 0 0
567 2 3.5243149672903931e+00 1.8528000440112152e+01 1.4045677169784092e+01 0 0 0
568 1 6.0881797045063992e+00 1.4118253068740747e+01 1.2118046962471585e+01 0 0 0
569 2 7.0514908544684198e+00 1.4118079555873880e+01 1.2036885889636972e+01 0 0 0
570 2 5.9055128484250279e+00 1.4723347937881563e+01 1.2854076093070953e+01 0 0 0
788 2 2.7154028333553437e-01 9.1562775786706059e+00 1.5622858816644428e+01 1 0 0
371 2 8.7557099565315983e+00 4.0700389146989391e+00 1.1298544826734718e+01 0 0 0
588 2 8.1841188621115624e+00 1.7648611289849434e+01 1.1677239973162822e+01 0 0 0
598 1 8.7100639736567889e+00 1.4369792557498645e+01 1.1726303549459573e+01 0 0 0
334 1 1.4047567384953412e+00 4.0485256683180175e+00 1.0863533599847202e+01 0 0 0
600 2 9.0973658158779447e+00 1.5012405659027850e+01 1.2399556528066469e+01 0 0 0
601 1 9.2179970883427664e+00 1.8844795859972358e+01 1.3458331682167808e+01 0 0 0
603 2 8.6062200440170038e+00 1.9133211101028813e+01 1.4192730041953459e+01 0 0 0
926 2 9.3386844616423748e+00 1.7325835079476334e+01 2.0264196648131630e+01 0 0 0
681 2 1.1075870689793907e+00 1.1297403199035339e+00 1.5711030942835585e+01 0 0 0
649 1 2.8788402980130536e+00 2.8663832822804052e+00 1.3858167457062789e+01 0 0 0
650 2 3.8671718269933089e+00 2.9146728125081549e+00 1.4054947339633747e+01 0 0 0
651 2 2.4145910736155942e+00 2.5313538751083220e+00 1.4685338649237803e+01 0 0 0
652 1 4.5455645954555859e+00 1.2629864105327404e+00 1.6989377850248221e+01 0 0 0
653 2 4.5177090288487722e+00 2.2518789296747834e+00 1.6819389214335239e+01 0 0 0
654 2 5.3812040847009470e+00 1.0820554466743280e+00 1.7465925850171871e+01 0 0 0
655 1 6.4699902428549265e+00 4.7765074503526481e+00 1.9448338623557753e+01 0 0 0
656 2 6.4160265117694575e+00 5.7076105083513067e+00 1.9721044181090328e+01 0 0 0
657 2 7.2545691792725329e+00 4.5658939937063359e+00 1.8817199743667686e+01 0 0 0
658 1 1.6862051115201329e+00 4.2349449843632918e+00 1.7593826182220255e+01 0 0 0
659 2 1.3935951075759760e+00 3.6149019974619150e+00 1.6949063422737218e+01 0 0 0
660 2 1.2841559401333631e+00 4.9873731650222997e+00 1.7128927228472605e+01 0 0 0
661 1 5.2057983275508759e+00 5.9150432757727396e+00 1.5588335776628854e+01 0 0 0
662 2 4.9949738276343929e+00 5.1423394173470722e+00 1.6152522708497269e+01 0 0 0
663 2 4.4930288377633847e+00 5.9295119924110473e+00 1.4949016289179594e+01 0 0 0
664 1 4.4233811089198189e+00 4.1269756382125005e+00 1.7299619122614807e+01 0 0 0
665 2 3.4565113960632461e+00 4.3390035989904057e+00 1.7523873974821726e+01 0 0 0
666 2 4.9651973770153210e+00 4.6124380829049754e+00 1.7954579765314765e+01 0 0 0
36 2 6.1443278634755529e+00 3.6911147492562124e+00 2.0617548474007403e+01 0 0 0
668 2 8.9749552388531495e-01 6.8227160173618833e+00 1.5797833084894922e+01 0 0 0
669 2 1.3275419047105668e+00 5.8204072839006358e+00 1.4716752441583251e+01 0 0 0
670 1 2.6439215464274688e+00 8.9379592759941662e-01 1.8952721567182575e+01 0 0 0
671 2 3.0917892773867708e+00 1.4603912231393368e+00 1.9647515794869321e+01 0 0 0
672 2 3.1542141126684080e+00 9.9647753288637164e-01 1.8148830801477942e+01 0 0 0
676 1 6.3754165373001763e+00 5.7641597039100778e-01 1.9145520153963616e+01 0 0 0
677 2 6.2816137513343051e+00 1.3081958779295102e+00 1.9773107238645423e+01 0 0 0
678 2 7.3419922621983122e+00 6.7285346462511664e-01 1.8932469206548099e+01 0 0 0
39 2 9.2101387301670119e+00 1.8149786118225510e+00 1.9603891868066661e+01 0 0 0
449 2 3.0891595316676441e+00 1.0981069248001454e+01 1.0517747682481758e+01 0 0 0
817 1 9.2610912717894855e+00 1.2239958800020801e+01 2.0590975840880333e+01 0 0 0
682 1 5.4979931616743718e+00 2.7410599961524458e+00 1.3974131463994974e+01 0 0 0
683 2 5.8908943317008839e+00 3.3909635529695565e+00 1.3333433661317754e+01 0 0 0
684 2 5.6776876264582699e+00 1.9230819805760826e+00 1.3438781768373534e+01 0 0 0
685 1 9.5063360807348420e+00 2.9959085377266605e+00 1.3628852104829374e+01 0 0 0
687 2 9.2875052366592037e+00 2.2443635953325840e+00 1.2967121854582276e+01 0 0 0
694 1 8.2172535368370951e+00 4.3334421861864358e+00 1.7502881036868917e+01 0 0 0
695 2 9.1851124329522076e+00 4.2978426680113282e+00 1.7594894936502879e+01 0 0 0
696 2 7.9668339869315909e+00 3.6673296530231156e+00 1.6836260994822979e+01 0 0 0
703 1 7.7947869529955769e+00 6.4647115527310870e+00 1.5514523156935910e+01 0 0 0
704 2 8.1913254736360379e+00 5.9303494209145784e+00 1.6287918428224199e+01 0 0 0
705 2 6.8144451690404679e+00 6.1907532002191736e+00 1.5473121494610483e+01 0 0 0
706 1 9.0633771067853068e+00 4.3169961366139620e-01 1.8536629773146146e+01 0 0 0
709 1 9.5145252883603746e+00 5.0700855696111837e+00 2.0373601056056415e+01 0 0 0
708 2 9.3765389429447143e+00 1.9361176658420248e+01 1.9125884322662969e+01 0 -1 0