LAMMPS data file via write_data, version 8 Apr 2021, timestep = 21737000

576 atoms
2 atom types

-0.018413763496436836 17.938414763486097 xlo xhi
-0.22341476349489964 17.73341376348662 ylo yhi
0.12658623650249518 18.08341476348934 zlo zhi

Masses

1 16
2 2

Atoms # atomic

222 2 3.02919048688233 0.8897623811714782 1.1571766372035754 10 -2 -4
521 2 1.6090514223215557 3.241772637503136 3.8399759804046463 5 7 3
237 2 1.255071117310891 4.023895819271882 1.7561150513928188 -1 -6 -2
568 1 2.222000829021109 0.3119294830751651 4.1311310304167925 1 -3 4
503 2 3.359884635364122 4.100267991803692 1.874845531500203 3 4 1
569 2 1.8352674309674353 1.1791817266729572 4.407640226561791 1 -3 4
379 1 0.4061344589451401 3.2442154971480472 0.4891324098133983 0 2 -1
380 2 0.3172541778649366 2.1921490359188174 0.3771014485170284 0 2 -1
329 2 4.068622748367819 2.3791043134861143 0.43708433958532306 -2 0 2
220 1 2.2624990500143918 0.34220825264585375 1.520580670869244 10 -2 -4
221 2 2.3168804559594247 0.3899980151672716 2.5491327976183773 10 -2 -4
386 2 0.8877341390638338 0.4472111166900491 0.6990614776449268 1 -7 3
502 1 4.220974997324335 3.691329052473004 1.5934829577779897 3 4 1
385 1 0.06875915216325455 0.734302801445008 0.17928072749326981 1 -7 3
520 1 1.293047030941442 2.6443502127512777 4.591381685866577 5 7 3
522 2 0.2993806561558031 2.7728401191996985 4.5035822521386555 5 7 3
404 2 7.684804412951412 3.9658107704565544 3.0428202622008107 5 -2 -9
403 1 8.517462774007742 3.4074759340554563 3.062200376034927 5 -2 -9
508 1 8.682296665917084 1.8219025503915915 0.5310382159066726 2 2 4
509 2 7.874316563469093 1.2628253173171426 0.719875537537571 2 2 4
405 2 8.62315377143303 2.865390187301636 2.2563394559862875 5 -2 -9
504 2 4.891106146210954 3.8482646273867576 2.304458719786989 3 4 1
367 1 6.393281461738849 0.2535094371623425 1.137279979698511 -3 -2 5
368 2 6.374779841082772 -0.020157976000065553 2.087633118032803 -3 -2 5
86 2 8.424706625385578 2.0911947879451627 4.05797466550506 1 5 4
407 2 6.08878388314816 4.093240454425027 4.083776895306895 -2 4 2
332 2 7.391258535275936 0.08959221272069057 3.8717891565953697 -1 0 -5
330 2 4.849829791396884 1.0769475951261125 0.19989286057162658 -2 0 2
257 2 13.043507980567643 2.5828745493670104 0.37271454298265966 7 2 0
351 2 12.005270765438718 3.443791829726639 3.7878257129858683 -3 3 0
349 1 12.651811023779516 2.7100563106694184 3.86150058116441 -3 3 0
11 2 9.945735757318669 4.1899225261711655 3.2445247197852227 2 -1 3
350 2 13.250547792313222 3.0557584021127533 4.604491783831102 -3 3 0
263 2 13.790953740597521 2.6960600587474466 2.5608419197732073 -2 1 1
262 1 14.177535732459617 2.6288491297010594 1.6488806087916903 -2 1 1
264 2 14.52028634096784 1.7093901087232388 1.5553647095694625 -2 1 1
365 2 17.149334538563284 3.760314237423063 1.7663667160155043 -1 1 1
564 2 16.49590063903466 3.2423269988266132 3.8383550347376345 1 2 -1
366 2 15.562069483264056 3.601312174641499 1.8605203854084524 -1 1 1
364 1 16.351645335305907 4.050160705398999 2.2833370192097107 -1 1 1
516 2 16.645159425260047 0.3193721694759384 1.1188933414498852 3 -1 0
514 1 15.75518718769413 0.35392598103310613 1.5427420902234157 3 -1 0
515 2 15.87007231469988 0.24722092964635806 2.5258107723153094 3 -1 0
235 1 1.894222987888497 4.455104158074707 2.4343456084344233 -1 -6 -2
462 2 2.2877678568810302 7.276901886933416 3.510460997289242 1 -3 -2
236 2 1.5727429137946203 5.353080388758248 2.6183235723143894 -1 -6 -2
460 1 1.428637206938091 6.965695104646308 3.0866891190714676 1 -3 -2
461 2 1.3591028653432566 7.313657323266766 2.1849982625366677 1 -3 -2
186 2 4.34000633730256 7.507597483875636 3.962530700972932 -1 5 -1
61 1 0.6205573132131833 8.169733756033036 0.7504529470275564 -5 1 -2
184 1 3.511973629791267 7.770718792377322 4.440817883520234 -1 5 -1
296 2 0.32761017061743314 6.407329072622553 4.585356811500272 0 -7 1
406 1 6.27237298789899 4.3882110263918035 3.181626154277947 -2 4 2
305 2 5.833277097444234 6.619164179438741 0.26099065665053833 -1 0 2
304 1 5.663345513462441 7.497051328235559 0.677648468258417 -1 0 2
91 1 5.877479045992204 7.008963944596935 3.273926036550762 4 1 -4
92 2 5.875251477693528 7.20804271692258 2.26780997336127 4 1 -4
408 2 5.994824471094674 5.312903816065404 3.097470594167137 -2 4 2
93 2 6.725889987975035 7.4507088772592285 3.4962930367113523 4 1 -4
559 1 8.109140470762092 8.441139365280604 4.099032903753313 2 0 -3
560 2 8.782101580914187 8.557925467933421 3.385234668298055 2 0 -3
471 2 4.774634304828141 4.6781233698068005 0.2943323853678563 0 3 -3
10 1 10.751367633733013 4.5455415396120955 3.6533992992976367 2 -1 3
363 2 11.169453743239327 6.445853834661784 1.0687427275510584 -1 0 -1
362 2 10.612082956796877 7.363223290331211 2.154589778493644 -1 0 -1
361 1 11.250833719374512 6.563192435985628 2.0257176623153894 -1 0 -1
12 2 10.90738073879555 5.348533843402455 3.0444057085644043 2 -1 3
506 2 12.661408040767409 7.6098820941786025 1.8942612745324607 -2 -1 8
505 1 13.340473292608895 8.25369831460062 1.7436176322538102 -2 -1 8
7 1 16.51937468375083 6.006140225468445 0.13574349250063839 5 -1 -2
230 2 13.814857801015114 8.095927414980522 3.8188778100103313 -6 -2 -3
297 2 17.201916497244888 5.568581046052707 3.721348505180285 -1 -7 1
507 2 13.721950439967813 7.994795719885866 0.8832740435096557 -2 -1 8
9 2 16.329147592323533 5.328601850576297 0.8398832475895702 5 -1 -2
295 1 17.428344215531034 5.880716248673831 4.612899478711581 -1 -7 1
63 2 17.756154716006648 7.634633475959336 0.4966956228908753 -6 1 -2
75 2 2.53605144564647 0.31814408051395016 7.814907135960964 -4 0 2
52 1 2.948398133719369 3.524693664222653 6.303025084091229 3 0 2
53 2 2.899476388108043 2.9604134416704317 7.12619246103648 3 0 2
73 1 3.200891266153278 1.016793236535948 8.038659869552008 -4 0 2
54 2 2.2492729861228504 3.145090002011461 5.773200362313198 3 0 2
17 2 0.23544791959947817 0.3594260744454365 6.854394013967603 -3 1 2
74 2 4.096173554188819 0.6242328722468429 7.954008310974297 -4 0 2
391 1 5.672539695766452 0.3286782562292503 7.641204350753426 4 2 10
392 2 6.393097930498793 0.9985123393036986 7.473489195510253 4 2 10
402 2 6.14133338129095 3.224543971251454 6.316327700649253 4 2 6
478 1 7.259676479977833 2.340594797333548 6.912941781851663 -4 -4 1
479 2 7.87017442361558 1.954928460592361 6.197242878534679 -4 -4 1
480 2 7.764392537053056 2.6792315032914606 7.668592802888618 -4 -4 1
401 2 4.660918381678715 3.820886431865048 5.864568420582985 4 2 6
400 1 5.62903028412149 3.953275936208834 5.869011365878834 4 2 6
85 1 8.48959453939938 1.4175696269219449 4.766327019533097 1 5 4
309 2 11.658551217083295 1.3558088697030004 4.719840840936956 -3 0 -6
87 2 9.393541243168272 1.0623037246144897 4.777079750002086 1 5 4
307 1 11.071243770145031 0.7268909918079883 5.025674960472838 -3 0 -6
426 2 11.127690714857724 0.739062163339145 8.343588421326762 -8 0 -1
424 1 11.382285801971667 1.292213253832668 7.536461360627114 -8 0 -1
308 2 11.23190631967027 0.7891153479370011 6.013871155566448 -3 0 -6
425 2 12.348024855169971 1.2651958026258874 7.817965646149644 -8 0 -1
208 1 10.802778116877493 4.029277612020882 8.310459505899491 -4 -5 1
210 2 11.177428883500339 3.147990927570627 7.992924772138703 -4 -5 1
342 2 9.335486481542816 3.4134095093361436 8.937877266244552 1 -3 -4
399 2 14.273041033750953 1.9738384125143353 8.999250371946351 0 -4 -3
138 2 16.358530067470014 0.5324106755791514 4.675784330485723 2 2 0
170 2 17.395962594955837 1.7003191918441494 8.937264817755624 6 0 -1
562 1 16.56183559910319 2.7032538830957 4.687393988927686 1 2 -1
16 1 17.343381576467166 0.8778629255370397 7.097296500668317 -4 1 2
513 2 17.294380875415815 3.3802273606102298 6.613101157359198 -1 -1 4
563 2 15.83088576338387 3.123454690901264 5.212341636797665 1 2 -1
18 2 16.8490196647238 0.1320821370735767 7.455587780589042 -4 1 2
397 1 14.045595672550295 1.7171895708838791 8.047307417389122 0 -4 -3
6 2 14.154437330749206 2.917055623735379 6.840078795474717 3 2 5
398 2 14.526022188793135 0.8821683736744611 7.96636985698056 0 -4 -3
4 1 14.333537616776606 3.334654992622855 5.9835299926497685 3 2 5
185 2 3.7840371858795723 8.663705142634015 4.799048064879955 -1 5 -1
443 2 1.1604106697935535 7.53227701404323 6.824394790994686 -3 -7 5
66 2 2.9225464292846035 6.582246466309005 5.7914928399366685 0 -3 5
65 2 2.400740667205698 5.156551064626251 6.358056123015489 0 -3 5
64 1 2.3122703419700463 6.160050247989553 6.443622249977922 0 -3 5
179 2 3.27432110346125 6.372333777394832 7.7895150087979355 -3 -5 0
178 1 3.9165272889222114 6.4791416707736085 8.567805455734502 -3 -5 0
442 1 0.9008927234097915 8.441429339867435 6.9270740864803955 -3 -7 5
203 2 0.12930642710177984 4.70045635301166 8.35978872255083 -3 2 -5
180 2 4.781129109768591 6.26984049645367 8.162254275698814 -3 -5 0
215 2 6.325849875420399 5.129860692767439 7.03966407037223 0 0 0
214 1 6.502694075546298 5.7175225860072665 7.801923570144808 0 0 0
216 2 7.086906961688232 6.348226960319186 7.405301928573494 0 0 0
188 2 8.273815021025351 7.915016147839911 5.757809304448278 0 -2 -4
187 1 8.365286573083727 7.482896229439561 6.624340613822078 0 -2 -4
384 2 5.88582987718619 8.731056088348575 7.803077557096012 2 0 0
244 1 10.621993827548826 5.57164112168218 6.161267199380378 1 -1 -5
246 2 10.762132719447541 5.110539824241321 5.283287451205702 1 -1 -5
245 2 11.407637891246997 6.010418959070919 6.4928068321436605 1 -1 -5
209 2 10.500772519683407 4.4799669130417525 7.482819978909979 -4 -5 1
189 2 9.065446501424413 6.8422957381728935 6.493080851392687 0 -2 -4
358 1 14.456738002071267 7.204710679908865 8.717372447194178 0 -2 2
512 2 17.454572855138863 4.812896014486466 6.030094602986398 -1 -1 4
310 1 13.65096824816854 5.965081447984864 6.370517427888727 -5 1 3
360 2 15.1003723754434 7.86318790834113 8.317054494974107 0 -2 2
311 2 13.90417345873731 6.347356164727555 7.231629086470954 -5 1 3
5 2 14.3272400083884 4.34052223172815 6.087132852073039 3 2 5
229 1 13.845742141961134 8.285680723859645 4.801335133509044 -6 -2 -3
312 2 13.88992822757294 6.71432836322114 5.794458114060995 -5 1 3
511 1 17.528793730476085 4.310971457175653 6.901346958403929 -1 -1 4
413 2 2.021415753061288 0.8052389424924461 11.088317651753997 5 3 -2
412 1 1.029135101576173 0.6667308942655139 11.220873235872718 5 3 -2
292 1 3.4397101597328574 1.1870759195460563 10.655984255080797 0 -3 -1
294 2 3.419889551394285 1.2415536663546969 9.687929177627597 0 -3 -1
158 2 3.4719350528129533 2.7271236406046366 11.631745908252848 1 2 0
157 1 3.5490272508832543 3.575790288402351 12.05583929122196 1 2 0
293 2 4.037886801337405 0.46801224411978704 10.95805935130052 0 -3 -1
159 2 3.1408168437049193 4.2606811988377 11.47593103314439 1 2 0
414 2 0.8412195765582242 0.3709189047217534 12.150043547822 5 3 -2
492 2 8.228265122727503 0.7319860887480722 11.684346529608321 0 2 -3
548 2 8.948558671826971 2.8162439501119376 12.458836286727166 1 -4 -1
341 2 8.001707832400223 3.9545947918344715 9.491487550300471 1 -3 -4
549 2 8.741426861514773 2.4868635945470836 11.008864176499248 1 -4 -1
248 2 5.257545420021524 4.056906563270322 12.459266023790043 1 4 4
340 1 8.416562496263518 3.1302471391588154 9.265824553400694 1 -3 -4
490 1 7.641774000625344 -0.096944764140594 11.687580703580105 0 2 -3
547 1 9.064867528699835 2.1221066061359335 11.831271866056483 1 -4 -1
450 2 10.528600596586058 1.7418887547466215 12.679295727265789 -2 4 7
448 1 11.188235025657114 1.2994697426135344 13.248681286192951 -2 4 7
395 2 11.844765816759619 -0.043498333518073806 12.483334846195437 0 -2 -1
204 2 17.894187563427067 3.759028134577352 9.45246979644992 -4 2 -5
409 1 14.923761701493063 -0.1889063974173476 12.360801817676146 -2 -1 1
171 2 17.664100037295874 1.6182963825470371 10.37669711177442 6 0 -1
169 1 17.248290186757117 2.2213377638055825 9.767448492706706 6 0 -1
411 2 14.866076303651834 0.6169867643611342 11.803140845936747 -2 -1 1
198 2 15.54221481275175 2.4304710736223205 10.458645798476923 -1 1 2
196 1 14.616874585912822 2.40393739728004 10.795987919944205 -1 1 2
197 2 14.490503682524702 3.314999813109409 11.206719483925756 -1 1 2
410 2 15.014544457035393 0.13940265562865256 13.252745157063785 -2 -1 1
487 1 2.541468615474316 5.379344449661677 10.527661763244437 0 -1 2
486 2 2.5693462449160256 7.0086728179396305 10.954446413770077 -1 1 6
489 2 1.6372207116793929 5.287859719864809 10.17943391473679 0 -1 2
488 2 3.1039016284682863 5.578826375260481 9.780994980079619 0 -1 2
202 1 0.2330639012173484 4.713399716363587 9.357069726178212 -3 2 -5
484 1 2.5745717582158774 8.003597403738317 11.019814834371841 -1 1 6
141 2 0.728398498692339 8.078726580869183 11.598811676957816 -3 5 -2
485 2 2.7521396288733784 8.234186400852916 10.038152619412271 -1 1 6
247 1 6.147297974645577 4.4881586446263 12.565114684441008 1 4 4
325 1 7.258476074523624 5.508141156753891 10.39547633920416 -3 2 -5
249 2 6.412520770251667 4.847015981150467 11.685783726792907 1 4 4
326 2 7.986914550207979 6.02307117698884 10.784158243529204 -3 2 -5
317 2 5.695635728885431 6.01000528799426 13.054345122819534 3 1 -3
316 1 5.450443120675366 6.900485118880698 13.501422177406607 3 1 -3
167 2 4.917944233782441 8.544859384430554 12.602182253022933 1 -1 0
327 2 7.004682138059607 5.712855883454615 9.48536696915419 -3 2 -5
550 1 9.296683320861167 8.65279345594376 13.471724270606764 -6 1 0
466 1 12.635135262666571 8.342265061599635 10.27120985882372 -3 0 -2
80 2 9.274320241846787 5.7740604616783635 12.281471577462383 2 6 -3
79 1 9.386327680075796 6.511047848056652 11.699423282878533 2 6 -3
113 2 10.80061071863982 6.1001817813134895 11.132571501598154 -5 -3 -6
114 2 11.387166500441758 5.369114084691436 9.894774025936904 -5 -3 -6
112 1 11.634640381042754 5.852295664019602 10.683915843649523 -5 -3 -6
81 2 9.341526353090492 7.229556637618498 12.416779665009706 2 6 -3
467 2 12.056592729942547 7.608075000349579 10.561048463235045 -3 0 -2
468 2 13.398295974330694 7.98438420883862 9.69589765546134 -3 0 -2
335 2 17.474139107175542 8.41140934690815 13.588665187520224 0 -6 -1
48 2 13.450339043095363 5.251925787224343 11.388042839154805 3 -1 -4
46 1 14.29543508382367 4.93126742180904 11.766735952015893 3 -1 -4
150 2 16.81974534014204 5.658685690935811 10.426956027757585 2 -1 5
149 2 16.56165317023687 7.124293028366749 11.04229752655655 2 -1 5
47 2 14.979440757386442 5.520056504627545 11.395362942945214 3 -1 -4
148 1 16.158472574091327 6.2605592314200305 10.831094217133895 2 -1 5
194 2 14.312042361555651 4.8445571511309655 13.484533548824624 -2 5 -1
139 1 17.814227696595193 8.280990673016014 11.895229914593262 -4 5 -2
359 2 15.005067398936939 6.71546570240677 9.376989863254753 0 -2 2
452 2 2.9701646603679714 4.027508702107062 13.83214720585453 -4 0 -4
381 2 0.46980407071459074 3.520976966389336 17.55450333264002 0 2 -2
537 2 3.7692905695685575 2.2723084061712244 14.839810920741652 2 0 -6
453 2 1.9767553047454245 3.6563154932811686 15.053531032754215 -4 0 -4
274 1 0.437025355574731 3.3128289695808957 15.765371062329244 7 3 -1
451 1 2.9131681313635447 3.873865545957925 14.811868623121764 -4 0 -4
535 1 3.831508119459074 1.3571170350113215 15.12607028976702 2 0 -6
536 2 3.721008320010926 1.458084522786781 16.108772057057767 2 0 -6
314 2 0.06883247533261931 0.2789336301106856 14.735989296984544 1 1 1
276 2 0.054929636992344655 2.5199915653696454 15.461972374197689 7 3 -1
387 2 0.16655835422894233 0.5485774343777089 17.133185220461932 1 -7 2
328 1 4.00625420509866 1.4890750666150967 17.976230731359294 -2 0 1
219 2 4.016772223814462 -0.1258747029487845 14.272070638006955 -3 -2 1
42 2 7.838509106869807 4.132475557948976 13.692846034124194 -1 -8 -2
40 1 8.865164145974006 4.13773436886472 13.658231195736821 -1 -8 -2
104 2 7.062674924647476 0.7292444593197259 14.992093520822198 1 1 -4
105 2 5.531427013999282 1.3181143027527056 15.078598101489966 1 1 -4
103 1 6.5019959833963 1.5126424381569703 15.140194423827547 1 1 -4
545 2 7.02610455679447 2.7015277520708327 15.978646884293955 -1 0 5
544 1 7.2515262860372935 3.4631920653994555 16.555352845030747 -1 0 5
546 2 6.467016597762298 3.9197414704325806 16.822978382385646 -1 0 5
510 2 8.317907256409015 2.4416790956872334 17.80094840095045 2 2 3
449 2 11.638941428544522 1.8029043156734859 13.926946101582057 -2 4 7
566 2 10.555263843515268 0.11895066151410277 14.517305484886823 0 1 -2
95 2 9.938611332223347 1.0353053836530441 17.87570040172059 -2 -6 -4
96 2 10.489616570827575 0.020275617549314673 16.74586376469036 -2 -6 -4
258 2 11.71127061818245 1.902779564451318 17.716185867199098 7 2 -1
256 1 12.300315751740534 2.7519247104263296 17.67564111463904 7 2 -1
32 2 12.536956711618854 2.9189660677528657 15.837233934483017 2 -2 1
31 1 12.844919325868801 2.7907179268754843 14.91780358712176 2 -2 1
94 1 10.686279868163366 0.46266864974013444 17.60320332703102 -2 -6 -4
33 2 13.52041673991871 3.5351193473756344 14.789104001535268 2 -2 1
275 2 17.91000464923754 4.097504157534157 15.478862266659585 6 3 -1
283 1 15.041779073130485 0.6222230806522878 14.902530369767344 2 2 -5
315 2 16.62869670455908 0.7003300479458885 15.228514442870008 0 1 1
313 1 17.566879563437436 0.7453517174530575 15.48334659368294 0 1 1
285 2 14.272714419292807 1.246778232371374 15.080394155039771 2 2 -5
199 1 1.5979475883766496 8.244343509249317 16.330142727395508 0 -1 -4
200 2 0.8078992981806246 8.420617397797908 15.676340368777447 0 -1 -4
260 2 3.1809507857369153 5.564935791310778 15.168897807983463 -6 0 1
261 2 3.0124085688654203 6.95654837516342 15.863925866952387 -6 0 1
259 1 3.706379219103407 6.305671506798632 15.529894342405749 -6 0 1
201 2 1.2916704911762131 8.13326519756692 17.28054168438103 0 -1 -4
108 2 7.27619264399511 8.363672521309878 16.240316985161616 1 -1 3
551 2 8.574058979578307 8.300656535437168 14.140118954986306 -6 1 0
470 2 4.5844146360051585 5.5070696642871395 16.880958740957993 0 3 -4
469 1 5.231248694834535 5.0675623980592555 17.451600383408554 0 3 -4
318 2 4.8716098924109295 6.616704734425578 14.274977522057828 3 1 -3
206 2 6.77773097872371 7.31948047346478 14.541117534026599 -2 3 3
205 1 7.679959716995411 7.4869260507114035 14.876589191677965 -2 3 3
207 2 8.141195560413376 6.678414934289783 15.261337484481437 -2 3 3
434 2 8.301670693428685 5.001500799656881 16.392949259312626 5 -2 -3
433 1 8.955199758609199 5.680586722572771 16.179973973114105 5 -2 -3
306 2 6.195518085209898 8.11026031204546 17.992139144600767 -1 0 1
41 2 9.11970000394315 4.462967834615203 14.520021093582626 -1 -8 -2
165 2 13.302342713358676 5.996817690440441 15.003739472445886 0 -3 3
497 2 11.48664940219603 4.49375850016703 17.415941643793726 -7 5 -1
435 2 9.732566831902991 5.5632478754525625 16.80793081610756 5 -2 -3
164 2 12.534199015610609 7.3947838544189075 14.902688622732347 0 -3 3
498 2 11.713170343658764 5.824732157702898 16.516478645816427 -7 5 -1
163 1 12.781204791308323 6.660333301379461 15.515583662713036 0 -3 3
496 1 11.24131964749671 5.475112929534457 17.30568271138033 -7 5 -1
151 1 14.387248660893963 7.739623653532853 17.361123742631932 0 3 1
193 1 14.33310273968213 4.8106495020568 14.44186873985042 -2 5 -1
345 2 17.2920277078587 6.539348075267359 15.080371357496718 -2 2 -4
334 1 17.343693966788052 8.163269567088777 14.514315240123347 0 -6 -1
152 2 13.763821174432744 7.353718996713594 16.66838931314405 0 3 1
343 1 16.89539706154494 5.6679494433018585 15.346521162828855 -2 2 -4
195 2 15.227552799068386 5.164975344500672 14.689985669790385 -2 5 -1
344 2 16.691722663872486 5.735227139205328 16.296682440074576 -2 2 -4
153 2 14.920178266413323 8.380174822536503 16.97623468015207 0 3 1
8 2 15.713142457601794 6.528505673785436 17.86627048520234 5 -1 -3
242 2 2.289882414029156 11.72607762213415 1.5702492082223765 4 4 4
356 2 3.625571081308989 10.086221394732748 1.145584809408466 -6 -4 -2
355 1 4.3518593697621135 9.872303883159129 1.8365198366624986 -6 -4 -2
352 1 1.811853766884343 12.67570253250143 3.0640628286830984 3 2 0
121 1 0.3296348364765562 9.342368589793427 4.543584078340729 1 4 1
241 1 2.297548115520632 11.357978584771963 0.6691888613419876 4 4 4
45 2 0.6010441211896085 11.120037693301796 0.37954374958493575 -4 -1 4
122 2 0.5563471130460446 8.997684579197516 3.66836723649248 1 4 1
354 2 0.9735329086493562 13.067470993253542 2.813271370305027 3 2 0
62 2 0.33274298714597017 9.079369395302505 0.5900254699475422 -5 1 -2
531 2 5.601762423731225 10.336663486513402 2.939217766069461 3 3 3
529 1 6.216801184799734 10.327892595842103 3.766167246331741 3 3 3
371 2 7.589570194962736 12.544721829533506 1.088979833977254 -5 -1 1
423 2 5.285142713109534 11.224657758193612 1.0367780152834254 3 1 5
370 1 8.56947116637206 12.365680436569752 1.134691798726493 -5 -1 1
372 2 8.699164440254043 11.513588515325017 0.7160883711399608 -5 -1 1
422 2 5.001383270808177 12.782169246876219 0.8353286085314344 3 1 5
530 2 6.593310771105382 11.19203557193561 3.8621456167818624 3 3 3
561 2 7.482607819814728 9.184688804644498 3.954422018687626 2 0 -3
357 2 4.769126250234259 9.138127732901546 1.3616251300423072 -6 -4 -2
421 1 5.582871499629092 12.058514032690885 0.523697917904948 3 1 5
575 2 12.683553766583563 12.215495447871497 1.9281362007489051 -5 5 6
574 1 12.630635784511902 13.060509230697154 2.388329487193586 -5 5 6
474 2 12.967239219926398 9.768153590508422 1.589631596286224 0 -3 5
472 1 12.917259848017137 10.724126271475786 1.2521187789888033 0 -3 5
299 2 9.886629684281072 9.309906179820404 1.5697237963837576 -1 6 -3
126 2 12.644296338955975 12.314839116698337 4.181329341319536 -1 7 0
300 2 10.770041742032431 9.416099574684866 2.9231185122318712 -1 6 -3
22 1 9.3614777489694 9.980349612009844 0.14502566361000913 0 2 -3
298 1 10.037019047177912 8.90524316364378 2.483062908387996 -1 6 -3
473 2 12.835420157979225 10.583876170366716 0.2913225580868251 0 -3 5
56 2 14.64999743109256 11.053935524650917 1.6560175041631588 2 1 -5
55 1 15.581457088595824 11.31718191038242 1.9045340446784353 2 1 -5
251 2 15.513176994111507 10.52749110900483 3.5383588499046352 2 -4 1
57 2 15.497055021316902 12.278339329825092 2.123623896948512 2 1 -5
250 1 15.787850051879849 10.145498154175813 4.399899061678522 2 -4 1
44 2 17.004613633238087 11.004922106270945 0.744873421233176 -5 -1 4
123 2 17.40531969014623 9.707739991073344 4.440350767134567 0 4 1
501 2 2.662251656456857 16.73654962643503 0.9053744651298385 -2 -2 1
353 2 2.527156568740761 13.337489087039803 2.981825668093724 3 2 0
570 2 1.687093821630247 17.499099488168945 4.225162892419312 1 -4 4
346 1 0.48575775026173196 16.027249269530483 3.9266568301135516 -2 -2 -8
255 2 3.5897903926833807 14.605121470908248 1.2641938710484317 3 1 2
253 1 3.849838380906993 13.94446859389713 1.9617212946166764 3 1 2
347 2 0.8750020792425665 15.445858051706535 4.594316753608613 -2 -2 -8
192 2 0.3004025487779477 14.665097897894873 0.36444642113513737 1 2 -2
499 1 3.0584682590009287 16.014085617744538 0.33009645120976844 -2 -2 1
254 2 4.5917985692265635 14.310762354220412 2.4182759729167835 3 1 2
540 2 6.73567895832521 13.617541434615102 3.1868749364639624 5 -2 9
265 1 6.779734239833482 14.912047500245318 1.9938213540534262 7 -1 2
267 2 6.826589962306207 15.81772936377145 2.4405410018228997 7 -1 2
266 2 6.575862194152213 15.103280676616777 1.088899150275511 7 -1 2
331 1 6.663022465912385 17.43226631566238 3.6343465832825133 -1 -1 -5
538 1 6.439575155985489 13.294651217897584 4.062992483160934 5 -2 9
539 2 7.220672369706663 13.506965362320498 4.575471333282661 5 -2 9
333 2 5.9961683387560925 17.530146495572296 4.3332213359467024 -1 -1 -5
369 2 6.412405454692677 17.443194125963995 0.6039484658197877 -3 -3 5
576 2 13.43008648444946 13.56126018497799 2.2426860462216727 -5 5 6
21 2 9.856061480278369 13.514563660002537 1.0386087070684058 4 1 1
20 2 11.379909000869443 13.607692639834434 1.3582414944610033 4 1 1
290 2 11.302736428634203 17.17980158966034 0.9688799602892665 -9 1 2
19 1 10.7032903195754 14.01110646986685 0.7797246489288897 4 1 1
291 2 11.265732416577906 15.54996420662899 1.063777925113247 -9 1 2
289 1 11.660682350431852 16.422053486215262 1.4059850319114948 -9 1 2
212 2 11.775964021057032 16.360508403604488 3.2124975428371845 3 -1 2
211 1 12.08276686384578 16.222029820103295 4.188857590565512 3 -1 2
288 2 13.421165086917162 16.30569794439015 0.843335871198455 -3 -1 4
51 2 17.889717975932353 15.117451275881953 2.5812350878002186 -1 -1 1
15 2 13.890359474836774 15.837621488257431 4.38667233467282 2 4 -2
49 1 17.710102001697745 14.376490361756565 1.885196926102666 -1 -1 1
13 1 14.82587012826975 15.661617554519713 4.4931349636457325 2 4 -2
137 2 15.655677958994564 17.07013747979978 4.463216002358542 2 1 0
348 2 17.670861484202387 16.563643447209238 4.210742376314661 -3 -2 -8
286 1 14.343968098612505 16.155784865660305 0.6618638231522952 -3 -1 4
50 2 16.70949120286401 14.402231907170984 1.867398415578655 -1 -1 1
465 2 14.738913700847265 14.965471776522044 1.7258895622874935 6 1 0
463 1 15.086902454375299 14.10441228194192 2.2217505458510316 6 1 0
464 2 15.042706922377535 14.337624672904846 3.1823267889984037 6 1 0
287 2 14.87422072421186 16.921705086426748 1.0176906108929402 -3 -1 4
136 1 16.441908802961287 17.61267769384979 4.231824912791916 2 1 0
155 2 1.8696481662440954 12.243896794462072 4.887283562499938 -3 0 0
156 2 1.4171294380099633 10.755678231414752 5.115128862683844 -3 0 0
154 1 1.9310030469430295 11.501596927531661 5.500141834628834 -3 0 0
99 2 3.4414057764023704 10.772559749345968 5.503488920443948 0 -1 -5
132 2 1.0643522947172925 11.935570957930535 7.131107875044178 2 -2 2
97 1 4.239671284916544 10.1777593364088 5.625929143585768 0 -1 -5
131 2 1.0305299021405403 12.40754619472315 8.585997022381452 2 -2 2
130 1 0.7355413035503 12.673598825372412 7.695045194591098 2 -2 2
429 2 3.6854388916316148 9.486439934535657 8.370414820081216 3 -1 -2
428 2 2.1311030307162233 9.188929495735577 7.870027912686638 3 -1 -2
427 1 2.7709366910857134 9.441400819729305 8.621566989201792 3 -1 -2
444 2 0.9164733099036386 8.82835234174696 6.027192367479026 -3 -7 5
111 2 5.743042091665223 12.467236249702886 8.534155474448818 1 -3 1
383 2 5.042830776676168 9.82267375404983 6.976851105604233 2 0 0
303 2 7.841710140191263 11.850659070107904 8.281150725265375 0 -2 3
98 2 4.9906666763710925 10.493540584222023 5.161377035989944 0 -1 -5
382 1 5.397554507611848 9.54169946272315 7.891269203247325 2 0 0
110 2 6.16492009416158 10.926596061269912 8.384748354070274 1 -3 1
301 1 8.706777330320838 11.97771039848792 7.7216709957157 0 -2 3
555 2 8.564190802481635 13.230384805453284 6.438904717917212 -2 -1 1
109 1 6.378926511196847 11.73689905132544 8.932951463987619 1 -3 1
281 2 9.333286359499038 12.990350383528034 8.774256490123905 2 -2 -2
223 1 12.900696786488552 12.72193765165722 9.024550264176009 2 5 -3
302 2 9.180312323146287 11.087341521727339 7.698441582184394 0 -2 3
67 1 11.404422687502215 9.670606866733603 4.769140106911567 1 -7 -3
78 2 12.060797350333402 11.153716173250157 8.898871274899385 -1 -7 3
76 1 11.574970020403066 10.304526702079412 8.96296093638725 -1 -7 3
124 1 12.480381062775702 11.929248238706052 5.0809512611347225 -1 7 0
228 2 10.56136862748571 9.60833263142173 7.967481485007195 0 -2 2
226 1 10.062863882905226 9.526603722004477 7.1199274798174 0 -2 2
125 2 12.032828682549027 11.0061342636779 4.855274476287301 -1 7 0
69 2 10.775689871027957 9.590615985596015 5.604783190957421 1 -7 -3
68 2 12.19113084534219 9.115519544717237 4.990906365343514 1 -7 -3
227 2 9.413693635695324 8.80360714985689 7.032939161722819 0 -2 2
252 2 15.414254496185752 10.610416923124227 5.200564992069353 2 -4 1
231 2 14.564580435009537 8.865658063611658 4.92184161672292 -6 -2 -3
376 1 15.819057013675392 12.829517710797269 8.294768817194925 2 0 4
3 2 16.938383379658895 8.93480448686931 7.469213715172689 -3 1 1
533 2 13.724308798208023 11.232659937306964 6.545320172387275 2 4 2
2 2 15.574710046476673 9.770910870493937 7.30508724681646 -3 1 1
534 2 14.940106743795551 11.644898075036203 7.544850447754769 2 4 2
532 1 14.671737635957964 11.083270498135944 6.765937839569263 2 4 2
1 1 16.127162243802438 9.17021176161853 7.90197964742445 -3 1 1
378 2 16.751644200149702 12.802170667367578 8.106028481815745 2 0 4
447 2 3.6260060251915633 17.725979906955892 4.878664721315702 0 2 1
457 1 1.2650178830916574 16.98187431486028 7.280166531765218 -3 -5 -1
459 2 1.4369860365692453 16.078957368126247 7.000612248307167 -3 -5 -1
458 2 0.8637534456276819 16.78674982696352 8.17821593106408 -3 -5 -1
417 2 1.5567137847955181 13.891570098025786 6.691033829942296 -1 -1 2
415 1 1.7688398440765438 14.632879518596216 6.119749078641198 -1 -1 2
416 2 2.6905285437636954 14.509919315343966 5.835158376205653 -1 -1 2
319 1 4.457127219624926 14.63034641259949 5.570694916126858 0 -1 -8
445 1 4.398988871575834 17.349120860363588 5.29987870102839 0 2 1
438 2 4.603951278063791 14.061642232798606 8.865344722636433 -6 -4 7
320 2 4.53466065412673 15.56247383299899 5.274410342818673 0 -1 -8
437 2 4.745019614256516 14.214854331163986 7.276404354041364 -6 -4 7
436 1 5.1079895635685535 13.782466471118326 8.079973046882042 -6 -4 7
321 2 5.239606544174813 14.129493084717332 5.237037060331953 0 -1 -8
60 2 6.5438808188233 14.952945631213591 7.7599120099116465 -1 -5 1
59 2 7.779050583653872 15.512453980363256 7.0152933199692304 -1 -5 1
58 1 7.052125413956256 15.792087879222938 7.617172996844482 -1 -5 1
553 1 8.521826136176628 13.994847428441991 5.838577894490075 -2 -1 1
393 2 6.14846597052592 17.428729773086033 7.544901889854618 4 1 10
455 2 7.856356217890975 16.2982929335358 9.053084395890703 0 3 -6
446 2 4.497762229374735 17.692593241183097 6.228414855478143 0 2 1
282 2 10.510496067212339 14.070655838738983 8.654028778988206 2 -2 -2
337 1 12.165739759184993 15.254174384662438 7.86875115733635 -2 2 3
213 2 11.6523014996227 16.92776836100666 4.627261033338092 3 -1 2
101 2 11.689680100303214 13.558354385583678 5.59351712952186 -4 -3 1
554 2 9.462215082137067 14.18564906885329 5.607419416113103 -2 -1 1
339 2 11.928392512665226 16.14944705278615 8.172845531403118 -2 2 3
100 1 11.196609081932465 14.40838423024305 5.592931386921185 -4 -3 1
102 2 11.514957781349256 15.057911534157954 4.842747925390802 -4 -3 1