LAMMPS data file via write_data, version 15 Apr 2020, timestep = 3277000

576 atoms
2 atom types

4.9310689740568669e-01 1.7426894102581230e+01 xlo xhi
2.8810589740581172e-01 1.7221893102581355e+01 ylo yhi
6.3810689740564541e-01 1.7571894102582149e+01 zlo zhi

Masses

1 16
2 2

Atoms # atomic

430 1 5.1340769894939087e-01 2.8478822630995122e+00 2.5268656914765062e+00 -2 -4 2
432 2 1.1717499951641606e+00 2.2407254949168336e+00 2.9756878955126882e+00 -2 -4 2
392 2 4.0891196141976565e+00 1.0181916508162536e+00 2.0489738613255639e+00 1 -6 4
213 2 3.6725617314614918e+00 2.7773681054699932e+00 3.6670375124219641e+00 0 -3 0
391 1 4.1885883562320849e+00 1.9632278009880999e+00 1.8669059859436308e+00 1 -6 4
212 2 3.1617003782617656e+00 4.0680661658022625e+00 4.3838500734801764e+00 0 -3 0
211 1 3.6994908689534212e+00 3.2926501406719924e+00 4.5671990494746471e+00 0 -3 0
259 1 1.6676269483446831e+00 8.9689068981077347e-01 4.0398128320629940e+00 -2 -1 2
260 2 2.6215750725340068e+00 7.2906611120904308e-01 4.2002412949992607e+00 -2 -1 2
275 2 3.5362985172126771e+00 2.6865292227360036e+00 7.7061617426359719e-01 -6 0 -3
393 2 5.0279547651272756e+00 2.2579134286449758e+00 2.2242641314212594e+00 1 -6 4
426 2 7.1585340718820358e+00 2.7036141076539710e+00 2.8497631943052841e+00 4 -1 6
424 1 6.6607016121882214e+00 3.4010649080901927e+00 2.3499932817840534e+00 4 -1 6
394 1 7.2324496658678488e+00 1.1345715136676700e+00 3.2445083664371368e+00 4 -1 1
396 2 6.3401558819452175e+00 9.8429820240500343e-01 3.6922168884398419e+00 4 -1 1
425 2 7.1216827464273242e+00 3.5896590663978372e+00 1.5455475033158828e+00 4 -1 6
91 1 4.7476947923871080e+00 7.1170972092485352e-01 4.4147037427579914e+00 2 0 -2
395 2 7.9120649817296629e+00 3.9826694745164382e-01 3.5055871338034299e+00 4 -1 1
21 2 1.1978625676879920e+01 2.1058863933030310e+00 4.2948070932888465e+00 -2 1 6
442 1 1.0511784844300879e+01 2.5014727025342611e+00 3.3781626769140871e+00 -4 1 -2
443 2 1.0361791040776652e+01 3.1498743708236385e+00 2.6982452846722955e+00 -4 1 -2
444 2 1.0650341651488116e+01 1.5645239838065534e+00 3.0004150207360269e+00 -4 1 -2
249 2 1.2123525026573242e+01 3.9097145876628017e+00 1.1278244124920018e+00 -1 4 3
19 1 1.2785769529128610e+01 1.8973298788150690e+00 4.8700623555980007e+00 -2 1 6
367 1 1.0585960341702195e+01 4.3314572618300415e+00 8.6944444275908195e-01 -3 -3 -3
242 2 1.0129715502871692e+01 1.0124369923221272e+00 9.0983012589752776e-01 -3 6 -2
247 1 1.3081292644642062e+01 3.8448343128641076e+00 1.3483404400569987e+00 -1 4 3
263 2 9.4111098988073536e+00 3.1094705800421094e+00 4.4469647361136193e+00 -6 1 -1
72 2 1.7286845643623259e+01 3.8480722993946088e+00 9.4935760667511160e-01 2 2 -2
209 2 1.6266452663929439e+01 1.6581556421176238e+00 1.7767795986492216e+00 -3 2 1
248 2 1.3565555387328413e+01 3.2384223680513449e+00 7.9676428724597659e-01 -1 4 3
431 2 1.7074289648336922e+01 3.2455124667081141e+00 3.2902001201907987e+00 -3 -4 2
345 2 1.6002787952261968e+01 2.0208243608514631e+00 4.5676466006716598e+00 2 1 2
554 2 1.4552000316744410e+01 3.9082200052078813e+00 4.1357526191349532e+00 -3 5 8
208 1 1.6147184227636320e+01 1.1447994462595084e+00 1.0323071675092359e+00 -3 2 1
555 2 1.3814302948732696e+01 4.1737232002093574e+00 2.7429085659177876e+00 -3 5 8
352 1 1.5062076308700892e+01 3.3615810820631176e-01 3.7296186168108028e+00 -1 2 4
354 2 1.4173312661292742e+01 6.2056694516216826e-01 3.9489432761091980e+00 -1 2 4
515 2 3.0097556058488188e+00 6.4022633713707968e+00 4.5794268507622746e+00 2 2 -3
214 1 4.4020673842655462e+00 7.2865566804732458e+00 3.2926590392475639e+00 0 -6 2
516 2 1.5090316996806692e+00 5.9666105119472812e+00 4.7330442169066300e+00 2 2 -3
215 2 4.3808871986840767e+00 6.5842135691764856e+00 2.6284880599478009e+00 0 -6 2
328 1 4.5934504434878818e+00 5.2181193680839764e+00 1.2844178481903921e+00 2 6 0
329 2 4.0454034052674652e+00 4.6369572415380462e+00 6.9224150843264554e-01 2 6 0
216 2 5.2667557026629348e+00 7.2468222804156088e+00 3.8518365990663699e+00 0 -6 2
330 2 5.3330052243928616e+00 4.6903214554856385e+00 1.6264187104642003e+00 2 6 0
117 2 8.6979062163516989e+00 4.8962110694302554e+00 3.7814982696722854e+00 3 -5 -1
116 2 8.2987312872366399e+00 5.9876694134318038e+00 2.6725168053098001e+00 3 -5 -1
115 1 8.7395751809475257e+00 5.8254786401059846e+00 3.5606510449895441e+00 3 -5 -1
166 1 7.7189464230266536e+00 7.4372040789209208e+00 1.7829161473735931e+00 -3 4 -2
7 1 6.5532509652429214e+00 8.1120409467335541e+00 4.2795705186314237e+00 6 2 3
168 2 6.9625398657181430e+00 7.3952435351567249e+00 1.1694099043152799e+00 -3 4 -2
167 2 7.4771863560797360e+00 7.7388728148354744e+00 2.6828106011247974e+00 -3 4 -2
434 2 9.8229496184508935e+00 6.7181330605064478e+00 4.0854413225780180e+00 -3 5 0
369 2 1.0731278583636433e+01 5.3211089980847834e+00 9.7801850986184191e-01 -3 -3 -3
282 2 1.1412081509112975e+01 6.8963466838811813e+00 2.4226760713281150e+00 -1 2 -3
280 1 1.1653174268990002e+01 6.6704065030283166e+00 1.5397847560907247e+00 -1 2 -3
433 1 1.0617160950039477e+01 7.3346646581221959e+00 4.1240720320811786e+00 -3 5 0
281 2 1.2537690754305576e+01 6.4117919720551182e+00 1.7459487023621643e+00 -1 2 -3
240 2 1.2702116041861576e+01 6.8710072035226704e+00 4.5029050936492965e+00 -3 -5 -1
387 2 9.1457659657766257e+00 8.7034603880261443e+00 1.8574196607172790e+00 2 -2 -2
386 2 1.0194159681732419e+01 8.5054650140869885e+00 3.0512367130727522e+00 2 -2 -2
553 1 1.4276998285940069e+01 4.6084615791623422e+00 3.5352217940366821e+00 -3 5 8
239 2 1.3853327017344151e+01 5.8602527006467708e+00 4.3358508878193796e+00 -3 -5 -1
129 2 1.6149795709806053e+01 5.4584982124330343e+00 4.0588869231334961e+00 -1 -1 0
127 1 1.6730989825780846e+01 6.0660351812832971e+00 4.4738917652557095e+00 -1 -1 0
128 2 1.6470273031775136e+01 6.9508672743553435e+00 4.0876700987265790e+00 -1 -1 0
506 2 1.5025438769154267e+01 8.3916118040262049e+00 3.2269708217876851e+00 -3 -2 3
507 2 1.6623818009042637e+01 8.4745329125357252e+00 2.7979794807588569e+00 -3 -2 3
505 1 1.5985266404182743e+01 8.3729353220627303e+00 3.5342838124469309e+00 -3 -2 3
253 1 3.9611235439812846e+00 3.4993872583009633e+00 8.8957881868751798e+00 -4 0 -4
105 2 1.5342442870452249e+00 3.5100539700923754e+00 8.8905190539530157e+00 0 -1 3
75 2 1.5787594947010068e+00 1.0145304169989287e+00 7.7339054180442730e+00 3 -2 -5
536 2 1.2207012467599214e+00 2.2666421603095572e+00 5.6227349008635885e+00 3 -1 -5
535 1 1.5317888438381690e+00 2.4715551187972640e+00 6.5184238706422608e+00 3 -1 -5
537 2 2.4452088466972728e+00 2.7158682758329276e+00 6.4906740247112040e+00 3 -1 -5
254 2 3.5370957354657544e+00 4.1958897831195978e+00 8.4192349587434165e+00 -4 0 -4
488 2 4.2983122970625534e+00 2.1647473952229190e+00 7.7588836219907202e+00 -2 -2 -3
487 1 4.6444070818385743e+00 1.5128974185162232e+00 7.1165490808856315e+00 -2 -2 -3
73 1 1.6504025434206973e+00 3.7344425404937032e-01 8.4925740356118631e+00 3 -2 -5
489 2 4.5110438120501453e+00 6.3452709873491653e-01 7.5214303323584044e+00 -2 -2 -3
103 1 5.9594018232796608e-01 3.4699724816094570e+00 9.1001453721925802e+00 0 -1 3
93 2 4.8133879141376648e+00 1.2554010695274080e+00 5.1998352037453150e+00 2 0 -2
255 2 4.9696945067959941e+00 3.6387961285565109e+00 8.7370147664259346e+00 -4 0 -4
98 2 6.5332747859030080e+00 1.4269416038854441e+00 6.8344901519161816e+00 -2 2 1
97 1 7.5200637894025624e+00 1.3968805881896538e+00 6.7661219673129365e+00 -2 2 1
99 2 7.6955071516915448e+00 1.6841558726477273e+00 5.8734573823531901e+00 -2 2 1
380 2 5.3109834529774149e+00 3.7907484736703645e+00 5.2400570050768591e+00 4 -5 4
269 2 7.1085422176308342e+00 3.5840308580343310e+00 8.4309513538875578e+00 7 3 5
270 2 6.4587803766148006e+00 4.2981786281688530e+00 7.1620829774586356e+00 7 3 5
268 1 6.4645247720891321e+00 4.2299092156300908e+00 8.1168879383181078e+00 7 3 5
262 1 8.6658923048202645e+00 3.5328284792172076e+00 4.9527984218180316e+00 -6 1 -1
379 1 5.9800750804763192e+00 4.4961269950966294e+00 5.4422783948733224e+00 4 -5 4
381 2 6.7622118698980724e+00 4.1948945597521590e+00 4.9693811033024424e+00 4 -5 4
264 2 9.0329067655300808e+00 4.0466141617503784e+00 5.6875827801096381e+00 -6 1 -1
439 1 1.0154431600645060e+01 1.9744283559494606e+00 7.7134320552147067e+00 3 1 2
440 2 1.0745178984379281e+01 2.7465421635250027e+00 7.5397639472484279e+00 3 1 2
441 2 9.2330437852216676e+00 2.2325431761295516e+00 7.7965774028905042e+00 3 1 2
20 2 1.2672971640293502e+01 2.5692035378203264e+00 5.6027112816894622e+00 -2 1 6
202 1 1.2580014866899001e+01 4.3547102773085458e+00 6.4753625012804958e+00 -3 3 0
413 2 1.0969878347224318e+01 1.0724802179387338e+00 8.9912718103521776e+00 1 3 2
343 1 1.5979546542144650e+01 2.9351518977583893e+00 4.8989231735041248e+00 2 1 2
567 2 1.6278612225885809e+01 5.9878701039580617e-01 6.7728825052272912e+00 -3 3 0
344 2 1.5738891353391031e+01 2.9104253134335130e+00 5.8283373080570913e+00 2 1 2
388 1 1.5731507076920661e+01 2.2144004553275067e+00 7.4054575822936712e+00 4 -3 1
390 2 1.6445581553179323e+01 2.5926400962422105e+00 8.0292282783471478e+00 4 -3 1
389 2 1.5019694009334966e+01 1.8481486953045079e+00 7.9601024477751228e+00 4 -3 1
31 1 1.4136841960114054e+01 8.1093519038579975e-01 8.7714420171298020e+00 -7 6 6
514 1 2.4420051123892037e+00 5.7170344026110280e+00 4.9283517266707246e+00 2 2 -3
547 1 1.2326843940062011e+00 7.3073903335525765e+00 8.7592504921290715e+00 -2 6 0
77 2 1.8807557795898202e+00 5.9088819683345335e+00 7.8916338317707710e+00 -1 -3 -4
78 2 2.3612161377235585e+00 5.1055351146837085e+00 6.6673614103470928e+00 -1 -3 -4
76 1 2.5770163836307667e+00 5.2177932023999061e+00 7.6316720928187101e+00 -1 -3 -4
327 2 4.2760846121475486e+00 6.6439872529975101e+00 7.1471705301982302e+00 -2 1 5
325 1 4.8352624406875995e+00 7.1400786903000251e+00 6.5119710530773931e+00 -2 1 5
9 2 7.1425976593095362e+00 7.6785786733610752e+00 4.9597447595079736e+00 6 2 3
126 2 6.9096154185406062e+00 7.3001931926043424e+00 6.8670177581068472e+00 3 -4 4
326 2 5.2443806367032870e+00 6.4506094293835972e+00 5.9565774197380321e+00 -2 1 5
125 2 8.4815009535619499e+00 6.9736040922198264e+00 6.5874193524362807e+00 3 -4 4
124 1 7.7376755878907515e+00 7.5382656826321170e+00 6.4338557334349993e+00 3 -4 4
114 2 6.5536575349084076e+00 5.7046780437885216e+00 8.9345302468025274e+00 -2 -1 -7
233 2 1.1308938213018674e+01 8.3451254700886803e+00 6.9926365715338985e+00 1 3 3
175 1 1.2429429991917027e+01 8.0966843227552516e+00 8.1556704704501115e+00 -2 -4 1
334 1 9.8447397233361507e+00 5.3581153574462173e+00 7.0713527651810733e+00 0 2 1
435 2 1.0711464947802261e+01 7.6176596774997485e+00 5.0162112557253185e+00 -3 5 0
204 2 1.3093936533502484e+01 4.5948632918417429e+00 7.2814902888335507e+00 -3 3 0
203 2 1.2923045551818401e+01 4.9786921901253027e+00 5.8373026371440160e+00 -3 3 0
336 2 1.0718406918676452e+01 5.3886589536629659e+00 6.5933390251626491e+00 0 2 1
335 2 1.0172880205196305e+01 5.5949052926341327e+00 7.9217434512177638e+00 0 2 1
22 1 1.4968349304434321e+01 7.8271766837827101e+00 6.8914331533499906e+00 1 -4 -2
146 2 1.4932225270052209e+01 4.9206325892776173e+00 8.1374989443703356e+00 2 2 5
24 2 1.4481581717463051e+01 7.5845425032631661e+00 6.0444330846899472e+00 1 -4 -2
145 1 1.4173098853975834e+01 5.0731237429342340e+00 8.7390288608809925e+00 2 2 5
548 2 1.7215352106187076e+01 7.1077543826499499e+00 8.8535884371050866e+00 -3 6 0
238 1 1.3459119266404432e+01 6.5060380713635935e+00 4.9981665609430852e+00 -3 -5 -1
298 1 1.6396843189748573e+01 5.2898152151578888e+00 7.3735394199850735e+00 1 1 6
299 2 1.6917656062105408e+01 4.5936481498300585e+00 7.9009852025779663e+00 1 1 6
176 2 1.3322395292330624e+01 8.1714618230252434e+00 7.8197101546739898e+00 -2 -4 1
300 2 1.6491268611741397e+01 5.1344859194203298e+00 6.4446573816655013e+00 1 1 6
23 2 1.5411430496499381e+01 6.9839580856840406e+00 7.0672120723518264e+00 1 -4 -2
337 1 3.4136937694445901e+00 3.2323169083817413e+00 1.1653934008624907e+01 7 -1 5
339 2 3.0421790941212028e+00 2.3356806213491632e+00 1.1521015665657993e+01 7 -1 5
349 1 3.4643226428363674e+00 4.7875611571837173e-01 1.0767120074701424e+01 0 -4 -1
350 2 4.3197723594546922e+00 9.3270613345962528e-01 1.0630664381216141e+01 0 -4 -1
338 2 3.6160057816087994e+00 3.6082362181335883e+00 1.0777707923653880e+01 7 -1 5
351 2 2.9798353257925507e+00 4.9746365594268732e-01 9.9610952362211549e+00 0 -4 -1
497 2 6.0332193360080320e+00 1.6180832897270356e+00 1.1766233543827877e+01 -1 3 -1
498 2 6.6103038710120039e+00 1.9536193424866193e+00 1.0390706903784114e+01 -1 3 -1
496 1 6.0255464325179133e+00 1.3403611211204556e+00 1.0842925202625421e+01 -1 3 -1
3 2 8.0936419650677625e+00 2.6748314030228504e+00 1.2815357759382575e+01 1 1 1
492 2 8.8491210069109343e+00 2.9289169813467408e+00 1.0168648585629647e+01 0 -1 -5
491 2 8.4254900445359837e+00 1.7210819183400814e+00 9.4520229497809005e+00 0 -1 -5
490 1 8.1065880313296486e+00 2.5946391602981094e+00 9.6362006851100439e+00 0 -1 -5
1 1 9.0479375228979411e+00 2.7056361522423207e+00 1.2777945425996981e+01 1 1 1
142 1 1.0764885813975063e+01 3.3785783903162101e+00 1.0618712764083350e+01 0 0 2
143 2 1.1221839240632693e+01 2.5154204598373884e+00 1.0361167202467801e+01 0 0 2
144 2 1.0772859309008675e+01 3.3610724342482605e+00 1.1586414258224012e+01 0 0 2
308 2 1.1983529977304086e+01 1.2057673394712476e+00 1.2527749918619151e+01 4 -4 2
412 1 1.1490313569651153e+01 8.7220931410646596e-01 9.8079466540443665e+00 1 3 2
453 2 9.8001201770771065e+00 9.8079525520284971e-01 1.2801825174864334e+01 -3 8 1
307 1 1.2950808689126658e+01 1.2805897653101073e+00 1.2340296300644114e+01 4 -4 2
451 1 1.0550591640276554e+01 4.5414240439312253e-01 1.3275089325271070e+01 -3 8 1
104 2 1.7424915596847569e+01 3.3012544074898358e+00 1.0083713661091499e+01 -1 -1 3
134 2 1.7176832036760345e+01 3.4238344532059819e+00 1.2396515083520637e+01 3 -4 0
133 1 1.6924497701737145e+01 2.8848690934429473e+00 1.1527830288670911e+01 3 -4 0
135 2 1.5975392350369505e+01 3.0771534504746323e+00 1.1416509724735279e+01 3 -4 0
460 1 1.4148095018141980e+01 3.4302671244529841e+00 1.1018284410870558e+01 0 7 -1
461 2 1.3801322788912451e+01 2.6407598354293755e+00 1.1435310049509424e+01 0 7 -1
503 2 1.6676760051081970e+01 1.0346746844044366e+00 1.0772493116489871e+01 -2 4 3
502 1 1.6339716162022931e+01 3.3847644261223037e-01 1.0170727055178823e+01 -2 4 3
309 2 1.3417450661591648e+01 1.1575520214253192e+00 1.3181164813910918e+01 4 -4 2
504 2 1.6921875087521187e+01 5.1888384825742917e-01 9.4072911736547109e+00 -2 4 3
33 2 1.3345950561767591e+01 1.0658259879933216e+00 9.2864837839202039e+00 -7 6 6
32 2 1.4786067040923063e+01 4.1782168666038821e-01 9.4605675821865027e+00 -7 6 6
462 2 1.3687772430819027e+01 4.1012508557831691e+00 1.1534012080329546e+01 0 7 -1
147 2 1.4225954496098103e+01 4.3857530845163373e+00 9.4906657881325405e+00 2 2 5
140 2 2.4344397810015614e+00 4.9795980173513321e+00 1.1746448569816469e+01 -3 -1 -3
141 2 2.8669874625945080e+00 6.3914769926225175e+00 1.1135973108277202e+01 -3 -1 -3
139 1 2.1475466287247045e+00 5.8882280235092015e+00 1.1558509413601541e+01 -3 -1 -3
100 1 3.8020178624976464e+00 7.2538110392657611e+00 9.9893782855168425e+00 1 1 3
469 1 4.2370142051409490e+00 7.9155084475217690e+00 1.3192567079563917e+01 -2 0 -1
417 2 5.1914893759782710e-01 6.4231731708931834e+00 1.2194037988047901e+01 2 0 -1
549 2 1.5405587297348562e+00 7.1265235571334227e+00 9.6788174636135178e+00 -2 6 0
471 2 3.9394610408208446e+00 8.4081041266176744e+00 1.2375882355015037e+01 -2 0 -1
101 2 3.8104979764461095e+00 8.1629123179667769e+00 9.5937339426492692e+00 1 1 3
189 2 5.5218164053446745e+00 4.6361674496413698e+00 1.2415648716285029e+01 3 7 -1
188 2 5.2949436666327765e+00 6.1789248753285602e+00 1.2579232891674094e+01 3 7 -1
113 2 6.5085272347518917e+00 5.9873062873054170e+00 1.0415194029925241e+01 -2 -1 -7
112 1 6.4768641030121668e+00 6.4330949014137486e+00 9.5501015998407102e+00 -2 -1 -7
187 1 5.9633990274275703e+00 5.4876621021835508e+00 1.2516140470283649e+01 3 7 -1
480 2 8.3115392330252185e+00 7.4032106286844499e+00 9.6611673616903726e+00 -2 -2 -2
102 2 4.7921556446394344e+00 7.0528527512677002e+00 9.8769832943757994e+00 1 1 3
407 2 1.1144790660236330e+01 4.8706564273764688e+00 9.7324536625270479e+00 1 1 -2
406 1 1.0823193842156112e+01 5.7657447315687227e+00 9.3624057360245470e+00 1 1 -2
478 1 9.1327401871940719e+00 7.8305824679193003e+00 1.0056664120609867e+01 -2 -2 -2
479 2 9.7283508967433239e+00 7.0549314650620536e+00 9.9967791730708164e+00 -2 -2 -2
375 2 1.2396819156961833e+01 4.8717358223158520e+00 1.3116794040467674e+01 0 -1 4
373 1 1.3185096378707387e+01 5.2159941325034538e+00 1.2644929842157969e+01 0 -1 4
486 2 9.6651961806259656e+00 7.7151420700421740e+00 1.2134815210452111e+01 -4 -1 2
162 2 1.2705568246020377e+01 6.8722887426682471e+00 1.1598292683691200e+01 2 4 6
160 1 1.2629006014591845e+01 7.7500727465704262e+00 1.1183735849523790e+01 2 4 6
484 1 9.4031972391224148e+00 7.8183835226386735e+00 1.3079596662504793e+01 -4 -1 2
408 2 1.1597508167165188e+01 6.3511642210646970e+00 9.2608531459179257e+00 1 1 -2
161 2 1.3215889451828318e+01 7.7248666716867032e+00 1.0429072032843713e+01 2 4 6
415 1 1.6587706420466908e+01 6.7629704449094534e+00 1.2447519642367567e+01 1 0 -1
130 1 1.5349434084140240e+01 7.0890681233345862e+00 1.0032600092269654e+01 1 2 -7
131 2 1.5720739706093921e+01 6.7862441891063883e+00 1.0854280954870774e+01 1 2 -7
186 2 1.6739646059389408e+01 8.4339697472889643e+00 1.2801248440141171e+01 0 0 1
416 2 1.6186777465003829e+01 6.1127986202525859e+00 1.3092600120541192e+01 1 0 -1
132 2 1.4937724291085793e+01 6.2843838994942178e+00 9.5013320013115887e+00 1 2 -7
71 2 7.7025891751550013e-01 3.7252499700306534e+00 1.6519443191654226e+01 3 2 -3
201 2 3.7531554157643621e+00 2.9776912764874148e+00 1.3628005642162096e+01 3 -4 -3
36 2 1.8153952850533035e+00 7.0436262364875168e-01 1.3698311691073705e+01 -3 1 -3
274 1 3.1870114616172698e+00 3.3111813928703997e+00 1.6984847874730011e+01 -6 0 -4
276 2 3.5540273854375632e+00 3.0841143628438439e+00 1.6087677080763939e+01 -6 0 -4
199 1 4.2156296360543237e+00 3.4704952703019321e+00 1.4282179252932947e+01 3 -4 -3
34 1 1.7116653705345743e+00 1.5471574075444032e+00 1.4181539396271168e+01 -3 1 -3
35 2 1.8021913017364672e+00 1.2961304839222558e+00 1.5117834972543060e+01 -3 1 -3
464 2 1.1198364795490476e+00 3.0991359549446056e+00 1.4145342918056595e+01 0 4 1
463 1 7.1685652958550017e-01 3.9668026217319761e+00 1.3859960461139432e+01 0 4 1
200 2 3.8495078772726083e+00 4.4320912608534115e+00 1.4259253452208851e+01 3 -4 -3
401 2 1.1087606477969576e+00 9.0179926155382872e-01 1.7196695782330998e+01 -3 6 -4
400 1 1.5282112994349366e+00 3.4887656179753435e-01 1.6526654067769556e+01 -3 6 -4
121 1 6.4172820728303792e+00 2.1286487039733091e+00 1.3344540513791937e+01 -3 -1 0
123 2 5.6973302044073426e+00 2.6576804433074681e+00 1.3773472042358598e+01 -3 -1 0
429 2 7.4301188127578826e+00 1.2601330117339042e+00 1.5467202608267520e+01 3 1 -9
122 2 6.2477159468874648e+00 1.2811325288768112e+00 1.3780258095052078e+01 -3 -1 0
427 1 7.4393844406961485e+00 1.3959032321392453e+00 1.6435624042257743e+01 3 1 -9
287 2 7.8911061125106325e+00 3.1656290502867268e+00 1.6297606215178011e+01 4 -1 -1
286 1 7.9442094032608281e+00 4.0326231667616739e+00 1.6762141030616693e+01 4 -1 -1
428 2 7.0676894011703837e+00 6.4345955742130911e-01 1.6869222187709191e+01 3 1 -9
2 2 9.4933187225440125e+00 3.2457580037642288e+00 1.3470379871637824e+01 1 1 1
243 2 9.0586179739169008e+00 1.2388380919431183e+00 1.6785595841270922e+01 -3 6 -3
241 1 1.0022744635933751e+01 9.9739834753108425e-01 1.6822541841550418e+01 -3 6 -3
66 2 1.1301699985186550e+01 1.9709612456312300e+00 1.6243765688849720e+01 -1 0 -3
64 1 1.2090262554316823e+01 2.2408423333459258e+00 1.5685290640670077e+01 -1 0 -3
302 2 1.1480924407510113e+01 3.5862670663356120e+00 1.4848680150159275e+01 1 -4 4
65 2 1.2779480922139937e+01 1.8377986885854678e+00 1.6206124040627678e+01 -1 0 -3
301 1 1.1003426545353994e+01 4.1267726767593906e+00 1.4192871127923198e+01 1 -4 4
368 2 9.6846972995192857e+00 4.1958168425089744e+00 1.7375457785452348e+01 -3 -3 -4
452 2 1.0682158393683840e+01 1.0187205286702161e+00 1.4102780663550684e+01 -3 8 1
70 1 1.7106111689845420e+01 4.2607249670152099e+00 1.7056715389969348e+01 2 2 -3
27 2 1.5330568303665169e+01 2.1355189705993700e+00 1.7030602243985111e+01 2 -3 -2
235 1 1.4967316861851064e+01 8.2942984532203234e-01 1.4396903929592535e+01 2 2 0
237 2 1.5177605536874495e+01 1.6188809931613681e+00 1.4994518204475977e+01 2 2 0
26 2 1.5466610218844906e+01 3.5982607235913862e+00 1.6597877447959618e+01 2 -3 -2
25 1 1.4839356231174062e+01 2.8406707012765757e+00 1.6506173182555603e+01 2 -3 -2
272 2 1.8212212765417404e+00 7.6443705720800690e+00 1.7433051712216006e+01 0 1 -1
465 2 1.3940603961967064e+00 4.6268924049583058e+00 1.4114690474346400e+01 0 4 1
273 2 2.1764014814740404e+00 6.1511381298995458e+00 1.7457227205741553e+01 0 1 -1
271 1 2.4094473522116875e+00 6.9995273862379426e+00 1.7045451093441706e+01 0 1 -1
532 1 2.7716983304073706e+00 5.7855492963338131e+00 1.4349491909000486e+01 3 3 7
533 2 3.0668971283407278e+00 6.4956387875434887e+00 1.3765307937341847e+01 3 3 7
534 2 2.8428855322357753e+00 6.2326715699225348e+00 1.5239612346687034e+01 3 3 7
470 2 4.7581748217615560e+00 8.6274011263621198e+00 1.3620150402632467e+01 -2 0 -1
522 2 5.1083624938567906e+00 6.5602629504008458e+00 1.7471376433949590e+01 4 2 1
288 2 7.2192376909683960e+00 4.6297863544567281e+00 1.6421337419402732e+01 4 -1 -1
521 2 5.0041498346940729e+00 8.0462546074667802e+00 1.6733878512281322e+01 4 2 1
332 2 6.3880960172990955e+00 5.6195412636034243e+00 1.4296930194424013e+01 -1 2 -6
520 1 5.6039222215020983e+00 7.3585836789879888e+00 1.7111632296268198e+01 4 2 1
331 1 6.4659820211063765e+00 5.6216031091208096e+00 1.5290497580633465e+01 -1 2 -6
333 2 6.2703166808107866e+00 6.4667289184098298e+00 1.5728264249256263e+01 -1 2 -6
355 1 1.0447104857030633e+01 8.2127137254770304e+00 1.6544631949111704e+01 4 -2 -3
222 2 9.0358165015221878e+00 5.4388341899760446e+00 1.5747200575170847e+01 1 1 3
485 2 9.4287688632652564e+00 6.9810778414807970e+00 1.3509654312246457e+01 -4 -1 2
356 2 1.0732510765357683e+01 8.2195134449124687e+00 1.7448919668935456e+01 4 -2 -3
221 2 9.8127552966104084e+00 6.7912854621698129e+00 1.5817166578324695e+01 1 1 3
220 1 9.6566966749734355e+00 6.0289539306700606e+00 1.5258631959092602e+01 1 1 3
303 2 1.0634119668309657e+01 4.8988359505469212e+00 1.4560158952262814e+01 1 -4 4
120 2 1.5639733815528084e+01 5.8823720229442591e+00 1.4961150758453121e+01 1 -2 -1
80 2 1.4956847259134886e+01 7.9142087290719436e+00 1.5452826227910707e+01 -3 0 -1
421 1 1.4361489911111679e+01 5.8176542578889761e+00 1.7167621529346587e+01 -2 4 0
79 1 1.4039418235105044e+01 8.2631348268021050e+00 1.5540938291146066e+01 -3 0 -1
374 2 1.3885648700103461e+01 5.2490729514247549e+00 1.3356077002077521e+01 0 -1 4
81 2 1.3795930768824062e+01 8.4064405474086410e+00 1.4584813485531892e+01 -3 0 -1
88 1 1.6452247575683330e+01 7.1239444941187893e+00 1.5958358440099150e+01 -1 -3 1
119 2 1.5965386241351547e+01 4.5496212346629026e+00 1.4306971908829309e+01 1 -2 -1
423 2 1.4002880598532245e+01 6.3705367751425586e+00 1.6416118212089607e+01 -2 4 0
118 1 1.5383652985806782e+01 5.3150600021707097e+00 1.4231558991081764e+01 1 -2 -1
90 2 1.7425120735375351e+01 7.1359709378869480e+00 1.6054206491280866e+01 -1 -3 1
89 2 1.6159203084984977e+01 6.4972471627414308e+00 1.6653722477362376e+01 -1 -3 1
422 2 1.3697517171866419e+01 5.0940341193390317e+00 1.7345923780203599e+01 -2 4 0
472 1 2.7991616607962864e+00 1.1232922561392673e+01 4.2113438130462333e+00 -1 -4 -2
474 2 3.1361292838220471e+00 1.0708125941423136e+01 3.4201430395734262e+00 -1 -4 -2
296 2 3.0539885168075966e+00 1.2758741299058022e+01 4.3211480478370170e+00 2 -5 0
573 2 9.8180638059420877e-01 1.2351488005295199e+01 2.0405751938630861e+00 -2 2 -4
311 2 3.9621658544235516e+00 1.2494680817879903e+01 1.0261449300681598e+00 -4 0 3
473 2 1.8276598215396060e+00 1.1053364927501530e+01 4.4126948219191231e+00 -1 -4 -2
195 2 3.8610985441717931e+00 9.6547381510879919e+00 1.2905832580484469e+00 1 2 -1
193 1 3.6007352480578096e+00 9.6321564174743450e+00 2.1985593712937010e+00 1 2 -1
481 1 2.2134848062687134e+00 1.2742051291057381e+01 8.5568595375617140e-01 -6 -3 8
83 2 1.8107131537188768e+00 9.0418929144595594e+00 1.9213398051949120e+00 1 -2 3
82 1 9.1071446411600920e-01 8.8253730894239943e+00 1.7084842622572167e+00 1 -2 3
84 2 6.6662628750284703e-01 9.4314639153879636e+00 9.7627780412790510e-01 1 -2 3
194 2 3.9306570659868671e+00 8.8051809257475213e+00 2.6318580810462899e+00 1 2 -1
310 1 4.9319885519745998e+00 1.2449901296594492e+01 1.2196644639867422e+00 -4 0 3
546 2 5.9708350849467697e+00 9.5464045466772944e+00 2.0676043949328187e+00 0 3 3
346 1 8.0777504309529320e+00 1.1538801418441084e+01 4.0609104132542413e+00 -4 -1 -2
348 2 7.6141247891532906e+00 1.1095322941999981e+01 3.3306802119652179e+00 -4 -1 -2
545 2 5.8815462047625537e+00 1.1048546591443888e+01 1.7551830711398564e+00 0 3 3
544 1 6.5272260733000698e+00 1.0312043258509345e+01 1.8808577912982738e+00 0 3 3
8 2 5.9396042608804418e+00 8.7728395555108492e+00 4.7074604768550117e+00 6 2 3
385 1 9.7656227911803732e+00 9.1850837407634209e+00 2.4496529521368391e+00 2 -2 -2
38 2 9.9846677709285743e+00 1.0765817968275575e+01 1.8006840338358805e+00 -1 -7 -3
37 1 1.0540226149021739e+01 1.1436211026117576e+01 1.3152440618002894e+00 -1 -7 -3
174 2 9.5976721015658200e+00 1.1973504443264357e+01 4.0780777110063937e+00 -1 -4 4
172 1 1.0483462789017816e+01 1.2417574892817687e+01 4.2528306325419862e+00 -1 -4 4
192 2 1.1423951354521558e+01 1.0864052826474268e+01 4.4107438869937035e+00 0 0 -5
321 2 1.3044520940248853e+01 9.3569335363530417e+00 3.4275116793875005e+00 -5 3 -3
39 2 1.1358202909671821e+01 1.1024305402387961e+01 9.8242218910918200e-01 -1 -7 -3
447 2 1.2047320575179850e+01 1.2852570839993325e+01 3.1268350990502056e+00 -2 2 4
190 1 1.2197487764352157e+01 1.0294055963351385e+01 4.5887701262161631e+00 0 0 -5
320 2 1.3492719720377115e+01 9.3503244679770532e+00 1.9417712368913309e+00 -5 3 -3
571 1 1.7109132413978202e+01 1.2336782812150989e+01 2.6029251729797211e+00 -3 2 -4
319 1 1.3463060658223410e+01 8.7883469609098448e+00 2.7301559468701346e+00 -5 3 -3
378 2 1.6964036176533789e+01 1.1196952333967197e+01 3.8859867750731611e+00 -4 -2 2
572 2 1.6326488018458303e+01 1.2210640738138649e+01 2.0522207244414146e+00 -3 2 -4
457 1 1.4845493930615493e+01 1.1862287495865047e+01 1.3298796100822812e+00 5 3 -3
377 2 1.6786617982571656e+01 9.7218585843471939e+00 4.4433500381757574e+00 -4 -2 2
376 1 1.7125315436159298e+01 1.0643430128306047e+01 4.7178341439497942e+00 -4 -2 2
458 2 1.4168144209414766e+01 1.2329614331470838e+01 1.8200799873451403e+00 5 3 -3
295 1 2.9641849889464913e+00 1.3746854995852942e+01 4.3456905018721290e+00 2 -5 0
148 1 1.7946372288204722e+00 1.5364276702478726e+01 2.7247501893636854e+00 -3 -3 -3
150 2 2.1814879079456739e+00 1.4554636801581561e+01 3.1488625281803917e+00 -3 -3 -3
153 2 2.9064622212309232e+00 1.5688054315223269e+01 1.6543481077274569e+00 3 0 0
149 2 8.9046518898273419e-01 1.5252622347610812e+01 2.4132711364152222e+00 -3 -3 -3
6 2 4.4721791298519342e+00 1.4407973281561151e+01 4.2320150651855748e+00 2 2 -3
151 1 3.4114488694298974e+00 1.6096312117249450e+01 8.6197567042671341e-01 3 0 0
152 2 4.3498116418655055e+00 1.5978382153741327e+01 1.0539042164688974e+00 3 0 0
261 2 1.4548174174933766e+00 1.7001376452903322e+01 3.5158269605675523e+00 -2 -2 2
92 2 4.8894113307819271e+00 1.6723828826741354e+01 4.6853391499853885e+00 2 -1 -2
205 1 6.1732885176466059e+00 1.6543802648122579e+01 9.3484850902501915e-01 -5 2 1
285 2 7.8209078041824842e+00 1.3132120257944907e+01 4.0835692694814281e+00 2 -4 0
284 2 6.8306241743307590e+00 1.4221070981843763e+01 3.4819059393211549e+00 2 -4 0
283 1 7.7481117829847550e+00 1.4054556897856918e+01 3.6368116122792205e+00 2 -4 0
266 2 8.3972878513973725e+00 1.5392123848999224e+01 4.1503827896666197e+00 -4 -2 3
4 1 5.2050901991943332e+00 1.5048665926652992e+01 4.4073247114959520e+00 2 2 -3
206 2 6.7414975805437525e+00 1.6897020415616630e+01 1.6739014119022861e+00 -5 2 1
265 1 8.8776317957606725e+00 1.6274961934584383e+01 4.2377495246758681e+00 -4 -2 3
207 2 6.4728991349718354e+00 1.5599620338233597e+01 7.2822775466464540e-01 -5 2 1
106 1 1.0364890250892577e+01 1.7128791957236324e+01 2.4541208430841501e+00 -3 -2 5
107 2 9.8739709930918860e+00 1.6682998649445466e+01 3.2030227136309484e+00 -3 -2 5
476 2 9.1805920885698633e+00 1.3918271155320442e+01 2.4060056055659693e+00 1 1 -6
14 2 1.1334004368361592e+01 1.4867019302136429e+01 1.1381759267781388e+00 -4 1 3
13 1 1.2164580003797216e+01 1.5417815001865460e+01 1.4077460506911521e+00 -4 1 3
15 2 1.2735430674226595e+01 1.4724753432341116e+01 1.9026062166279740e+00 -4 1 3
477 2 1.0108698859106983e+01 1.3041280313564856e+01 1.4703526549281607e+00 1 1 -6
108 2 1.1217019423570678e+01 1.6617790849606791e+01 2.3858957020562350e+00 -3 -2 5
475 1 9.6076599130903659e+00 1.3914303195100395e+01 1.5556048309016353e+00 1 1 -6
445 1 1.2865343089962963e+01 1.3282113059192145e+01 2.8271663021886217e+00 -2 2 4
353 2 1.5437858988789680e+01 1.6979434294069655e+01 4.5429462291159037e+00 -1 1 4
360 2 1.6861435631762326e+01 1.3486060596842213e+01 4.0975303470332420e+00 1 2 5
18 2 1.5552613390532494e+01 1.5148022098231884e+01 1.0303431494938120e+00 2 0 -3
16 1 1.6073269754945905e+01 1.5444520210449513e+01 1.8049605364128158e+00 2 0 -3
17 2 1.5400950777211646e+01 1.5518919141884403e+01 2.4887454959304010e+00 2 0 -3
446 2 1.3319240531034232e+01 1.3619758464111083e+01 3.6685818501209804e+00 -2 2 4
210 2 1.6111366518444996e+01 1.7140071239855608e+01 1.3240311019018196e+00 -3 1 1
196 1 3.3503798993187215e+00 9.4746201046129617e+00 7.9761259116356138e+00 0 -6 -3
57 2 3.2402353906441861e+00 1.2973266754782074e+01 8.9165027613790127e+00 -1 -4 1
55 1 3.3095614435081933e+00 1.2183257516371265e+01 8.3778192643113272e+00 -1 -4 1
304 1 1.2209697682805776e+00 1.2708139103008531e+01 6.9997812968681927e+00 1 2 2