LAMMPS data file via write_data, version 8 Apr 2021, timestep = 319000

3072 atoms
2 atom types

0.028693648787287127 29.645138059508255 xlo xhi
0.028693648787287127 29.645138059508255 ylo yhi
0.028693648787287127 29.645138059508255 zlo zhi
0 0 0 xy xz yz

Masses

1 16
2 2

Atoms # atomic

2685 2 11.23947730913116 9.585309373552173 7.938358841619992 0 1 0
2888 2 7.813741300631892 10.587613592091637 12.09540085614343 0 1 0
2774 2 7.994329231177086 8.32933091842031 0.8775997176926104 1 0 0
3012 2 12.670190399061154 11.028761530067365 8.391925877724962 0 1 1
1650 2 10.117305254979348 1.818663567038076 1.690292035044193 0 -1 1
441 2 27.575196220405005 12.318720342907733 1.7428729777703205 0 0 0
2878 1 28.848760455183886 12.835499451464855 8.181113697316102 0 1 1
2485 1 5.986998276713804 4.657106959066042 12.541620484550517 0 0 1
1821 2 19.354161558591603 14.463387362278906 4.637377005241231 0 0 0
1886 2 13.236541918234499 2.4866283567877874 0.5937567954959567 0 0 0
3064 1 27.532074292914896 3.833537444226234 0.12510031220624165 1 0 1
2360 2 26.14162619513174 7.565516996546559 1.1243809666851385 -1 1 0
3062 2 28.738172509024583 2.137167228744922 2.698704281907701 -1 0 1
2652 2 11.969987397262999 5.477667949854476 2.1234731553298682 -1 0 1
1627 1 0.35726337340498676 2.9892997210369403 9.461988714138004 0 0 1
1291 1 23.598219835097517 0.5708518845794156 5.922870493337535 0 1 -1
2066 2 18.48732223048218 1.1733241607339624 14.79435341108447 0 0 0
439 1 26.846600781835143 12.451688165154527 1.1648318096354544 0 0 0
661 1 15.19950631502843 1.7369599678474554 9.985261150520994 0 0 0
590 2 3.4290918116168188 8.83984816798603 0.18025815398684683 0 0 1
593 2 7.279420379982298 5.652153335335 12.721594586311596 1 0 0
2182 1 23.608850395310846 3.1905395426930387 11.473740677745038 1 0 0
576 2 9.637524464865054 14.585381847497818 0.7594779716894762 1 0 1
2824 1 15.278329108277623 6.335689112788516 7.1047815405129375 1 0 0
2231 2 26.237070012451355 5.364063526270941 2.1128752879896577 -1 0 1
226 1 26.60178621134625 11.959583017971966 5.642841091191594 -1 0 0
2266 1 17.511426652783506 2.250306412739639 3.181866018225273 0 1 1
1225 1 9.432310070585343 1.3653917331848422 0.20198005518459597 0 1 0
2455 1 0.8320209983197997 7.9967225978383984 1.0095776483734946 0 1 0
1515 2 26.84396631843238 2.957519696251906 2.9008080587487046 0 1 0
2793 2 7.490424403866862 13.9861728679126 3.3634386999273036 0 0 1
432 2 7.325533198796025 1.833074307129836 4.858887353304139 1 1 0
2639 2 16.779221314749197 6.133497384906721 11.515418260066925 0 1 0
2031 2 20.702907403553173 0.9196394292085543 2.6333093433446266 1 0 1
79 1 29.463119451775434 10.34185777573017 0.3490934089337605 -1 0 0
322 1 9.603456785858404 1.7743843826404917 7.24792422837434 0 0 0
361 1 19.733428803309682 10.758052733098985 3.3345362545778956 -1 0 0
466 1 22.531935347528616 5.083839264597884 1.312978247912396 0 0 1
748 1 4.704647876916686 5.809592965839642 10.275415166249577 0 0 0
1930 1 6.979474157769768 1.4161558081492231 7.937407302475467 0 1 0
345 2 27.01542161931065 12.152065009932969 13.540448252537036 -1 -1 -1
1076 2 22.266637505346377 3.427626400533945 7.001414332306573 -1 1 0
678 2 26.277020406312676 7.89344743235375 4.266530944816516 0 1 0
1368 2 4.425906944627709 7.747355117805873 5.9210222545350835 0 0 1
442 1 8.785479375811331 8.800391502575277 11.535941638611884 1 0 0
1911 2 21.770061814583446 6.849152567133926 10.869392569118682 0 0 0
1887 2 12.172817855931973 1.896638320370619 1.6362720413959566 0 0 0
2178 2 12.292065833502072 14.545894650724309 13.419333856460257 1 -1 0
2041 1 2.7110716734014666 10.748590447218682 3.029258129413948 1 -1 0
1548 2 21.064602671776132 2.8490532487075924 14.060298289761972 0 1 0
2638 1 16.646497320884954 7.005243545525719 11.290704894953647 0 1 0
89 2 12.027819161136264 5.821970590768467 6.544377881796306 0 0 0
1458 2 0.23415687853733996 1.4032635060542606 8.622315557501395 0 1 0
2746 1 6.767882004621161 13.578298447930896 0.2048194104593841 0 1 1
974 2 15.578858255196483 7.158106409791968 3.0495073053590946 0 1 0
2358 2 7.543925545887479 9.451019754392494 14.359037611195792 0 1 0
480 2 18.678848190492356 5.236373725059696 8.702907852062618 1 1 0
1581 2 11.364014863054946 7.268369724341916 11.866264407538125 0 0 0
2863 1 0.4667409391226016 7.69341968453324 6.071159342078836 1 1 1
2605 1 1.4974195551920486 8.548664687949321 3.557034616584599 0 0 0
2606 2 0.9346087777469232 8.178791567367963 4.268938682938423 0 0 0
2590 1 17.713623824073714 0.7824354924893997 11.139465456950575 0 1 0
2792 2 8.704060746345993 13.711872601234708 4.435433613842305 0 0 1
1200 2 0.3049542066551493 6.216903234973088 12.746009639898135 1 1 0
2044 1 12.673576522639674 11.064843475211156 2.5253398470993034 0 0 1
3007 1 27.03334351611002 8.990311278936643 1.1288792659639808 0 1 0
1366 1 4.536470514593967 7.575504468828391 6.880003185405162 0 0 1
2607 2 1.1709103177224713 8.107315931018208 2.7400859197598195 0 0 0
1576 1 23.877748507925244 2.806147571394876 3.5282848213509843 1 0 1
2255 2 4.394162604484247 10.80309165429009 3.3133005887805718 1 -1 1
2029 1 19.698300979033927 0.8774221007604698 2.924917259311844 1 0 1
1751 2 6.649114032404767 11.758840362850947 6.8252879214797115 1 0 1
2618 2 18.620108880757368 9.204273457767632 5.841763222450012 0 1 1
1831 1 29.321270080214656 14.626579963590087 2.278216222949451 -2 0 0
1648 1 10.749868202855438 2.051416530986423 2.381385508485787 0 -1 1
2348 2 25.271445834037365 2.7137697140746475 13.82645592952715 -1 1 0
2393 2 2.872836616661011 11.55463557308177 6.483681693042084 0 0 0
2903 2 2.478145030449258 2.82315447105509 6.508293844164573 1 1 1
2302 1 17.24881637121797 7.408126479810678 3.510545105676642 1 0 2
347 2 0.6452179295201694 5.3650877209768275 14.656088400960485 0 0 0
713 2 14.647911816659251 11.758830372025102 8.361738739264203 0 0 0
994 1 9.4732526986283 5.697214509545307 10.287175972786706 0 1 0
2592 2 16.84117231453241 1.107667240814186 10.848053809530837 0 1 0
1571 2 18.070062609718505 5.637573530078613 5.741239196470896 0 1 1
1293 2 24.587267388780415 0.500117799361164 5.990556723024903 0 1 -1
110 2 24.102294469995336 6.794213027559482 7.591301875939995 0 0 -1
1411 1 22.577371957828245 11.682062740531611 2.8544372298493275 1 0 0
1998 2 28.55426703649621 0.47261959336133524 9.636833438978698 0 -1 1
2104 1 7.100146090617785 2.9309552624309796 1.9879067051954142 1 0 1
1138 1 28.064806422493863 10.26793231452914 8.577869849551462 -1 1 0
998 2 19.753473986241552 12.46588897873606 0.9272277915480368 0 0 0
2232 2 27.66248742765829 4.967009099101649 2.8019193487981187 -1 0 1
712 1 15.6328932462247 11.829614715067217 8.184069413168835 0 0 0
601 1 23.48791949017891 13.449778515414046 11.410476506077778 0 0 0
2648 2 19.19406793958267 14.338527236358285 8.623751363194646 0 0 1
2394 2 2.6972301758729134 12.830315051354987 5.769732076977878 0 0 0
2168 2 21.498282067022522 9.101937505886585 13.482367716653687 0 0 0
2595 2 26.180126987733768 0.8642151421519907 12.4414338892333 -1 1 0
1511 2 9.018905016123556 0.4641415565762367 9.474263216376016 1 0 0
1328 2 1.1771048655817218 1.4101889368261276 3.5097665364319166 1 1 0
2404 1 10.057053436174037 3.896854211675514 13.141222958865562 0 1 0
1213 1 14.493127117734755 5.963754843393552 0.19489321779491034 1 0 0
2370 2 22.852929015878917 8.76256435996536 7.642738551673539 0 1 0
1540 1 4.224635819118102 10.908354466096656 10.65996328142202 0 -1 1
2303 2 17.523919098642907 6.496967436260803 3.316281187360674 1 0 2
1311 2 3.1923300061099704 0.4701413881575898 3.026408324497112 0 1 1
1512 2 7.486323807622154 0.2842847192260028 9.600096226197456 1 0 0
2626 1 21.718095101052832 10.096176927707424 0.8580126622673898 -1 0 1
2902 1 2.305152385835658 3.7873156321804817 6.380531054102099 1 1 1
1721 2 6.4947840428067645 9.981668986521697 0.7695504442600885 0 0 1
2087 2 13.019444263755986 14.29118751709947 6.043132081793804 1 0 1
1396 1 27.73663340995217 4.432319776313593 13.231331574669161 0 1 0
1001 2 11.31427157737792 8.550784730579139 13.293534790743035 0 1 0
1656 2 18.60681478617741 4.263013686276157 11.98372183008526 0 0 1
2949 2 9.382501865420544 3.3399904840338963 4.607837315582571 0 1 0
2936 2 23.509097671669725 10.788511359777429 7.0211289583427625 0 0 0
1301 2 2.4048366982772413 10.392532414270406 14.037699336359651 1 0 0
377 2 29.197266238084662 1.5749327860498146 11.621757242587911 -1 0 -1
1287 2 18.681392064785626 1.6374519364847762 7.2938450244964175 1 0 -1
2864 2 29.193313957683035 7.299992894419746 6.153932336801979 0 1 1
1482 2 7.111741767323337 7.682535567684546 13.067832204297764 0 1 0
2644 1 1.3898091393986822 13.09758942838882 0.7421583270223256 0 0 1
1010 2 21.26507480092 4.321457092920306 1.9792327075045149 0 0 0
1058 2 26.780175645778236 8.31367162203645 12.890840946466804 0 0 -1
824 2 28.655797463667554 9.515270424390456 4.870594774138359 0 1 0
2916 2 25.62584154716267 6.273840185166672 12.749518461962627 0 0 1
1720 1 7.079397380557209 9.839924007869408 1.5524412186026137 0 0 1
1577 2 24.155748237729902 2.2565340536287417 4.267761149527318 1 0 1
677 2 25.219985418764438 7.913265268199006 5.401638335463625 0 1 0
664 1 29.354906537545943 3.904234296605815 5.374229965458395 0 1 0
1397 2 26.934096552084235 4.683182008556407 12.657435742787099 0 1 0
1660 1 12.970841517823448 12.764452444411601 0.49106486343132494 0 -1 1
1309 1 3.9275947035441408 0.1336510201634118 2.418528074769408 0 1 1
624 2 8.471174145831208 7.005386128476847 1.4614335418857916 1 0 0
1541 2 4.356510335050167 10.109225468421332 11.1040391729922 0 -1 1
1086 2 2.936646974260314 1.3210710280847575 13.746595249752419 0 1 0
823 1 28.899611743444762 10.345013008044148 5.2866149650359455 0 1 0
1605 2 7.160280922122425 12.003616310178446 11.680588047849543 0 0 0
735 2 27.068374866708858 0.1706709146259675 11.379570615652156 0 0 0
1418 2 2.908489211865573 5.072273390613506 13.591441859285792 1 0 -1
2490 2 28.353293878468207 14.295195446455821 4.596705788892485 0 0 1
2558 2 28.541342126165123 13.033488528090674 11.136213531720479 0 1 1
2733 2 7.261339922003297 5.758514378792668 3.718075572209409 1 0 1
1084 1 3.1304112927683505 0.8546048386424073 14.594057675499325 0 1 0
987 2 22.550032544044477 12.672187634139682 2.5845921035299897 0 0 0
497 2 19.594774234697155 7.03727695858386 13.314170978822375 1 0 0
2914 1 25.479567552767293 5.4410615611322575 12.272264226310584 0 0 1
2417 2 10.829869695084144 11.071748591948083 10.650778008419318 0 0 1
3004 1 5.910411988285743 12.525752396320232 5.461964615186115 1 0 1
1529 2 7.40161587178172 8.232379237307528 8.192186033081983 0 1 0
2395 1 17.745738064670597 12.983749881624592 12.16008116924792 0 0 -1
2211 2 1.0504698545508127 5.803142409688804 10.89452553281671 0 0 1
1506 2 23.310802014676234 4.326519319029923 14.07351076613627 0 0 0
154 1 7.220187723295623 7.323636411261331 9.652543853024861 0 0 0
461 2 22.711511805672416 1.6728032515141074 2.6556024284032596 0 0 0
1294 1 3.0877308836672577 1.7685042946692229 9.770318246753149 0 1 0
1382 2 9.052282836485647 7.7872822300962845 7.478394382691966 0 1 0
1052 2 4.698801374139004 7.622270762211634 1.1641037441200293 0 0 0
2791 1 8.17472766727893 13.42579282983496 3.6146961942428657 0 0 1
440 2 27.133630521162804 12.07467445689547 0.3309644936514673 0 0 0
494 2 10.89070728084334 0.22291875005417966 3.3946936775611514 0 0 0
2825 2 15.995406698154882 6.080913698307472 6.5021754619674645 1 0 0
1457 2 0.6463362269179881 0.11225027594454583 7.896499431055182 0 1 0
1077 2 21.818061753869458 2.908762246428561 5.559617239591583 -1 1 0
155 2 6.411737364471238 6.822619856455952 9.926236059844296 0 0 0
2311 1 12.259690446448424 13.715063745375149 6.136894214156815 0 0 1
2002 1 1.1924932847148766 13.425234264481254 13.59396597945513 0 1 1
91 1 20.419849774094274 2.9303535109364143 4.7117281069933945 0 -1 0
1412 2 22.4640932437392 11.817675079365742 3.85229256313355 1 0 0
1820 2 20.22129516580151 14.455536879916085 3.375137295229861 0 0 0
2986 1 3.1408905564736886 1.1294019142282878 6.337097005407749 1 1 1
465 2 4.826477969116149 4.235155112183867 9.287837977241118 1 0 0
1226 2 8.591574130006569 0.9231756657095139 0.507454081803507 0 1 0
2563 1 9.794444128679938 10.471787780838465 1.232516987091396 0 1 0
2955 2 25.130530236939975 13.85419197894024 8.707367463576666 0 0 -1
2572 1 9.027755077983661 4.912728995550804 1.88983497202672 0 1 0
138 2 27.403882605975294 10.349680814666964 11.978210453896947 -1 0 -1
1525 1 14.666170918661582 10.463406132244183 4.228614992873425 0 1 0
750 2 3.7406539884551844 5.918816508673973 10.317166354556347 0 0 0
57 2 17.226266055212566 13.839393451943161 9.998234290359326 0 0 -1
1754 2 10.293545171741314 9.023612228199113 2.493856397589335 0 0 0
1693 1 24.224236385365344 0.8203821839467691 10.400435568033325 -1 1 0
999 2 18.827521278284358 13.291559061001221 1.6811487574688777 0 0 0
2628 2 21.94334806796133 10.697844542219867 1.6279812200996422 -1 0 1
1196 2 18.22691759682752 8.846294201703987 0.0981084158888151 0 0 0
220 1 4.21550329815895 2.9142649948824304 2.366320734984304 0 0 0
2670 2 0.6588199613654582 8.928610336402558 0.6768946312372401 0 1 0
321 2 15.467636446771586 11.900835646378832 5.126938640316793 0 0 0
2254 1 5.35142812481207 10.90258808246697 3.3595970999626386 1 -1 1
1140 2 27.467640016999656 10.458285434429632 9.303008152917366 -1 1 0
460 1 22.227812248038077 0.8884188132663804 2.294764862313745 0 0 0
819 2 11.302148648839077 14.395285624682302 9.546981993327584 0 0 1
1639 1 14.105964783667709 14.632606811149062 13.894515935862431 0 0 0
3065 2 27.289729618284195 4.112820732244671 1.0549990187758373 1 0 1
1459 1 21.278445244364203 6.488574635817813 3.5619837645337227 0 1 -1
1962 2 2.2819571534974603 5.175368830214677 7.343827332847211 0 1 1
603 2 23.66259645092853 13.303961119627195 10.42045154374175 0 0 0
2100 2 14.233517605296422 6.491174800225599 12.236295255652353 0 0 0
2957 2 18.104682072298118 14.477607478183662 12.63454512198168 0 0 0
2931 2 22.376713910970075 9.929902133628298 10.858103100133645 0 0 0
1187 2 24.606228694900377 2.5384442201605375 0.505477716793246 0 1 0
1542 2 3.334615908780137 11.192062168167984 10.685260132002968 0 -1 1
1996 1 28.64101654303745 0.2254978021121593 10.611508507624785 0 -1 1
2880 2 29.54131385813797 13.15746804451335 7.526600251673661 0 1 1
1295 2 3.608412507897072 2.3259901691629126 9.148928104628448 0 1 0
1157 2 28.092838839861 5.105657459026501 9.102057946901642 -1 1 0
1750 1 6.931045018867696 11.565133729481742 7.741532760647424 1 0 1
973 1 14.69117347441174 7.154234611465691 2.6525365162422734 0 1 0
2645 2 12.661609621973009 0.643999935539062 12.038311338619968 0 0 0
660 2 16.791201459145327 10.05419360564992 1.72267783011582 0 0 0
1640 2 14.441361781625877 14.066729482674841 13.114040121993556 0 0 0
2392 1 3.3026829088359806 12.396845020827609 6.329499512504564 0 0 0
2801 2 14.525989884123712 1.7285288707697446 11.70127854851019 1 1 0
222 2 4.013873729998459 3.1923112819920036 1.4160388263696 0 0 0
1139 2 28.327858430900623 11.177384752908342 8.293611455942736 -1 1 0
2122 1 13.892893795184854 2.384690862903867 5.708955765344963 0 1 1
2530 1 20.570824192311377 7.486182334345846 1.0512452133904284 0 0 1
1296 2 3.200908002957185 0.7998931585955517 9.57410124765071 0 1 0
1199 2 28.66788036414039 6.0290792293195015 11.841048002942625 0 1 0
622 1 8.096408004422562 7.408532832383075 0.6418119135707515 1 0 0
3051 2 10.788095320048212 6.440265067023209 10.685330823029956 0 0 0
714 2 16.16128705190549 12.556193913939195 8.695991054249106 0 0 0
2385 2 9.78623965983754 10.95604024045039 14.082810266204866 0 0 1
1580 2 3.6314750297185623 5.652276609122926 4.327511355187488 0 0 1
467 2 22.155327020448674 5.926424471168999 1.110692129157384 0 0 1
1022 2 2.296089994141967 4.9151129653024235 2.7093743595853574 0 1 0
2559 2 0.1757532012118873 13.5437116992031 12.070568290491986 1 1 1
2047 1 27.53410316782287 6.735320082606078 6.172655926457393 0 0 0
1708 1 8.26393755150464 4.6528404206425575 7.739364836480733 0 -1 1
340 1 22.11454197649949 12.40981668902942 5.524489217430811 -1 0 0
2353 1 17.318177362157034 3.8974581060503537 8.99855951473409 0 1 0
556 1 23.876046890272672 5.0860464705587125 9.480476641037699 0 1 0
2937 2 25.035255225757883 11.131181489545733 6.75196704877714 0 0 0
2947 1 10.038809442637556 3.9311355588399506 4.0949323438563185 0 1 0
802 1 8.378775710549808 7.0019741640071045 4.350788111446788 0 1 1
752 2 16.382661893986306 13.760009162039603 1.894095378009238 0 0 0
1710 2 7.4143833697162655 5.004212475004492 7.363933588730964 0 -1 1
2030 2 21.07997265977362 10.970792415124478 9.17803238058711 1 0 1
764 2 9.450846540077174 11.437733668639982 5.230339434443671 1 0 0
133 1 10.520868313467322 8.99239784207025 9.370342020426168 0 0 0
2964 2 17.564672504852485 4.212395590805853 2.764665427544844 0 0 1
2619 2 28.828699672677754 1.026642058125204 6.439292672693214 -1 1 0
1480 1 6.516981321572311 8.34105002371722 13.525330761472015 0 1 0
2108 2 26.06327397641341 1.9702092949151888 6.367525857392978 0 0 0
2849 2 0.5824732274891051 1.4341159339649854 0.7405419296502167 1 1 1
51 2 2.0236829984530273 5.542593588197368 1.3058297879521785 0 0 0
2867 2 25.63226043990489 8.74696317419832 7.354221435289709 -1 1 1
1111 1 24.104109456443435 14.673640490742269 5.017532780231024 0 0 0
2683 1 11.9940121473126 9.893378996665636 7.344294935543233 0 1 0
1462 1 8.399422306636088 13.39945645184446 14.167952728793422 0 0 0
2780 2 21.902326029654947 6.379887177279812 14.365714339093422 0 1 0
2557 1 29.404193834393663 13.546682080476172 11.153189962397827 0 1 1
2454 2 4.6963163851156855 13.319491540082948 9.187828927009866 1 0 0
230 2 24.000444763175373 3.551647766105436 12.318166658438125 0 0 0
825 2 0.039886391333519 10.204895657446158 5.907255281228685 1 1 0
2124 2 13.318614680004371 3.0207315188308477 5.132909464327955 0 1 1
3063 2 0.26219302055968985 3.085114603391596 2.4693947696589293 0 0 1
1897 1 6.108991490324936 5.463003066700485 6.474475493982275 0 0 1
2401 1 8.72401540554407 13.45710989030078 10.464072067023322 0 0 1
1327 1 1.8867933150615972 0.8338026969432347 3.9408774656689816 1 1 0
1285 1 17.75319561715997 1.914851905881543 7.370280285043388 1 0 -1
2283 2 15.66484833968835 0.5516125642982802 1.1901872503836421 0 0 1
8 2 17.807601688142643 3.4024310393610424 0.6946744156196601 0 1 0
2383 1 10.638882429919867 11.284557468296386 13.777872377145892 0 0 1
2737 1 14.911944624728887 12.844502944418679 11.876628637899678 0 0 0
1696 1 22.196317771950916 9.654139741125375 13.807166154050773 -1 0 0
2452 1 4.159192598760934 13.87894031175937 8.654665335299235 1 0 0
1628 2 0.06619510335332818 2.896133697553481 10.391579196586505 0 0 1
753 2 16.563086717624184 12.154961221095581 1.8371381649604086 0 0 0
315 2 8.455572596728885 6.604067075881006 14.719577883077088 -1 0 -1
457 1 3.14293934619246 10.604487125019261 0.47816105978960327 0 0 0
2384 2 11.184819421700984 11.53239478104988 14.581111362206817 0 0 1
3009 2 27.681172389821807 9.416752779595924 0.47146465918301594 0 1 0
378 2 26.379782423932358 8.17191935945179 10.830804747377073 -1 0 0
1253 2 12.33990694855188 4.30393070912979 11.077386287574758 0 0 0
2262 2 4.565001514836861 7.416328864739967 3.3365537612470058 0 0 0
93 2 20.598586876145607 3.00919519828128 3.7362476831846565 0 -1 0
2953 1 24.224949766919515 13.506443262879362 8.823313425028774 0 0 -1
2688 2 19.632877841722188 11.055072220552004 6.649982252744613 -1 1 1
2699 2 20.963428371450693 11.970545000451336 11.049198606179239 0 0 0
443 2 9.214926783435711 9.610460110192214 11.165427150707018 1 0 0
2185 1 24.894952411683303 14.811658191398712 1.2496476466574242 -1 0 1
1481 2 5.696622517770341 8.415776506509856 12.996146381871881 0 1 0
2967 2 27.03587981004161 4.689143790898195 14.710412017093201 0 0 0
1156 1 28.077377029776876 5.718953179354291 9.822416722776824 -1 1 0
2464 1 12.748147138704255 8.696348312361845 1.3457849761095717 0 0 0
2582 2 17.725163898664846 10.443170293868805 10.570286987176019 0 1 0
2732 2 5.862188075281328 5.803375139776638 2.995789747208345 1 0 1
2082 2 3.8316389690190475 4.129248091045832 3.7695203279231246 1 -1 1
2781 2 22.628027177024492 6.459840150357273 12.959090556392601 0 1 0
1923 2 24.624566424513006 1.140970848869625 1.052960781253656 0 0 0
2989 1 7.656492592410074 2.3516125473868583 14.784227297047302 1 0 0
665 2 0.65422865559337 3.7617458754910835 5.708788672649364 1 1 0
651 2 10.693590792551099 13.471145374774771 8.557627777830415 0 0 1
1709 2 8.570042463804606 4.080194022462689 7.031323709727437 0 -1 1
602 2 22.63236449477842 13.011828110646407 11.474642603691816 0 0 0
111 2 24.854707722539867 7.536232995350256 8.862953275059697 0 0 -1
594 2 8.396533381246625 6.170981156788119 11.704868377841194 1 0 0
1409 2 23.150085486044947 14.735798447676261 1.8820204247432863 0 1 0
2282 2 14.508740218135182 1.4226577780931433 1.730566773752164 0 0 1
561 2 4.47053599349211 0.2675308938985042 6.167437241444073 0 1 0
1383 2 8.926935716974523 6.1135770485856 7.433769211681587 0 1 0
2987 2 2.6659745713714056 0.3896924602453132 6.87336989657736 1 1 1
1365 2 8.075960104957376 2.5597383957794824 12.937876575402885 1 1 -1
2349 2 25.470721205696677 1.383678060902381 14.476620697788741 -1 1 0
1189 1 16.55317452549322 3.0465266416862904 5.406854560170931 0 1 0
2368 1 22.466958065129262 9.509115364204131 7.167916110627596 0 1 0
1910 2 23.192628387144424 6.269157867847967 10.663442150655172 0 0 0
780 2 19.84921965329821 2.177745637758545 4.9216188045504605 0 0 0
2069 2 19.284484589691882 4.913651177633026 14.42640476099814 1 -1 1
2123 2 14.786546286618451 2.675938109176437 5.486284285689716 0 1 1
2649 2 20.732858085376147 14.802156520503564 8.861144696554803 0 0 1
1578 2 24.437317065509838 2.547462674539138 2.759110781290828 1 0 1
2698 1 20.95470663558495 12.659293857465222 11.747136255427101 0 0 0
2745 2 17.388939422669242 3.6954562917793226 9.918287443280745 1 1 0
2321 2 16.301326959008332 7.2386491488065445 8.038019798735448 -1 0 0
2525 2 5.219343357383272 14.447768940910283 2.7310658100688285 0 0 1
214 1 29.186855466552206 7.926087022713402 9.068471526638394 0 0 0
1686 2 13.586221616198998 0.8140517590918126 5.390533333869473 0 1 0
858 2 23.828670686797242 4.468325142799625 3.7903829468870023 0 0 0
199 1 16.274733406166344 10.068737033049718 9.763025547873433 0 0 0
1629 2 1.361150683296586 2.9925054081436797 9.4249184828831 0 0 1
507 2 25.457794392564317 4.127040578064094 6.498229803688141 0 0 -1
1277 2 28.82726381190888 2.073050061589577 5.173656135162718 -1 1 0
765 2 8.221644774390615 11.859184443067697 4.369354136683449 1 0 0
136 1 27.63751118721 9.529163681753491 11.450365969807716 -1 0 -1
2048 2 26.894772786607696 6.257330224336708 5.698080330851517 0 0 0
1523 2 12.791315459797115 5.060859370796736 4.588834601422166 0 1 0
1900 1 20.15107791899307 1.017138963479874 7.159141413005126 0 0 1
1286 2 17.667468623270977 2.5865050298080448 8.083496797140333 1 0 -1
1000 1 10.55798802630771 7.928644666366996 13.336954716716361 0 1 0
2700 2 20.942037896225383 12.232971213535565 12.646681813878983 0 0 0
1819 1 20.339920607306084 14.410276168921737 4.396535105888216 0 0 0
1113 2 3.6272599427984815 0.2116494590703712 0.5403742549938542 0 1 0
2868 2 26.97681524177797 9.647019536479648 7.42687214117137 -1 1 1
325 1 9.46464746666186 12.447442332288635 7.5944823334402605 0 0 0
462 2 22.67053098322551 0.18915104324299858 2.8162958514052256 0 0 0
663 2 14.93706427776513 0.909119999029139 9.549793423537224 0 0 0
2106 2 6.549937405848811 3.632193269387069 2.3999824574229685 1 0 1
2492 2 0.14217650080828875 10.217800357506382 14.574989766609496 0 0 1
676 1 25.51002500842897 7.4507673277939315 4.59775956778455 0 1 0
2802 2 13.48952526459212 2.72362674552213 12.255769344304987 1 1 0
2581 1 18.469051829754278 10.512185799129242 11.128028405534147 0 1 0
1695 2 24.003367453571595 1.7265686574496388 10.782029296757171 -1 1 0
1989 2 2.8389491494938417 1.8870711600739265 11.507329296869601 1 0 0
3061 1 0.05011152318954869 2.143509072053566 2.4601883415008152 0 0 1
2767 1 6.974359707145013 9.079736985531902 4.917466919107246 0 0 1
2844 2 23.96736077754383 7.925366550769955 3.2431995085672254 0 0 0
2049 2 27.17231498868883 7.61898904831087 6.458867775985669 0 0 0
324 2 8.733945520109717 1.893472206769524 7.636197019236038 0 0 0
880 1 28.152928146469325 3.4779654762124035 7.801490391762266 0 1 0
327 2 9.586007309372025 13.051885242428321 6.8459225996773085 0 0 0
2515 1 21.54747117623754 2.014597651809466 12.532371495566908 0 0 0
2008 1 29.315935029131552 2.419472129967668 12.122250118966738 0 -1 0
1002 2 10.06424921911025 7.981306954604289 14.147773824978447 0 1 0
342 2 9.389746937215238 0.30157608751837295 6.430315767874598 0 0 1
2866 1 26.358160343025638 9.2204424208981 6.8186458823311 -1 1 1
363 2 19.909667474541088 11.497874272932382 2.7660638427436868 -1 0 0
506 2 26.10333200899055 5.503307842308103 6.998237332062442 0 0 -1
1729 1 25.413366091399265 10.6680788481085 9.752382723807504 0 -1 0
82 1 20.988004169241567 10.600853908658198 10.11239107861565 0 0 0
2779 1 22.64458170984002 6.048251286217949 13.864412109446405 0 1 0
2187 2 25.269104450851206 14.265981755936245 0.5719894870120396 -1 0 1
1771 1 26.42535787907414 1.1811655130603902 7.993319508091073 -1 0 0
2416 1 10.13315643499995 11.361153561259211 11.223399143779398 0 0 1
1408 1 22.43401505941145 14.384472426637215 2.4573790304295855 0 1 0
184 1 17.116055200528496 5.564174761921297 5.605673543227882 0 1 0
2842 1 23.793193569797925 8.443978896521354 2.4303098331224637 0 0 0
1381 1 9.374933527310722 6.959697987857256 7.085076106335304 0 1 0
1909 1 22.687320258932576 6.781972068411148 11.26188014805363 0 0 0
2488 1 28.639526938639907 13.80267386894644 5.38147342564903 0 0 1
2713 1 27.00856205743584 12.35941572485063 11.268640469940083 0 0 0
1152 2 13.379450021089664 9.27057231500731 12.521529541937431 0 1 0
847 1 16.376259046042343 4.87305501662254 14.302045410517078 0 1 0
49 1 1.5747868947154422 5.014458615534716 2.0091030500640445 0 0 0
2566 1 18.9955949198743 10.927605937043163 5.9400191111753635 0 1 0
2287 1 18.485225682027835 8.222021288144829 5.844055628892547 0 1 2
1928 2 17.766644073756776 8.378947326819036 2.3795989749370348 0 0 1
1694 2 24.998926164733774 0.4677926944543841 10.868777064867137 -1 1 0
784 1 0.6130028966115237 9.232388029325207 11.463189296553514 0 0 0
2555 2 23.751880178816386 9.145855203738817 14.657331780024052 -1 1 0
857 2 24.55503503795778 5.820447858108054 4.227849201511325 0 0 0
2655 2 27.655402474060825 1.7564903559978065 14.68355967227043 -1 0 0
544 1 25.255658697991336 10.880893725602052 2.5618989265263417 0 0 0
149 2 27.64427067626746 8.747635660750452 2.8364628990502543 -1 0 0
2045 2 12.674440126981692 11.640329984637717 1.750120497856276 0 0 1
1198 1 29.492273748879263 6.467143606190962 11.92556253907863 0 1 0
2043 2 2.3801948931568653 11.598360961285785 3.303930434429877 1 -1 0
1261 1 1.7305616178443375 13.083428846856501 4.238960980010433 1 0 0
2562 2 14.716642574283195 14.328530104196384 10.64695358631981 0 0 1
1987 1 2.3798599128013533 2.199463941888739 12.354898288679447 1 0 0
141 2 4.566618698294622 8.129648685168835 11.0401911191944 0 0 0
2647 1 20.109766438432295 14.346062682617868 8.248274714071895 0 0 1
996 2 9.603104209715092 4.65819870068354 10.290435206014147 0 1 0
1367 2 4.6024901700809515 8.396627416992834 7.445541018589604 0 0 1
1011 2 20.566505585458 3.0154673558242253 1.4257980338436549 0 0 0
186 2 16.91079501441287 4.590518659491354 5.498949198988916 0 1 0
2304 2 17.512289431306307 7.526206167341445 4.459152768314385 1 0 2
121 1 19.887057434052554 5.356377565530371 5.678246130410305 -1 0 0
343 1 26.865829874917257 11.49515755419495 14.195897217768751 -1 -1 -1
2948 2 9.523425866101398 4.424808530024795 3.4561140422705954 0 1 0
580 1 20.53410715887728 7.691270779110446 10.028443518473882 0 0 0
2183 2 23.6103908903046 3.9700054073473985 10.901497080673368 1 0 0
2609 2 20.731807208444025 8.448106607188516 1.1616289757633418 0 0 1
997 1 19.78178151497222 13.155847218366423 1.6079278806075872 0 0 0
2811 2 2.1890292593239247 7.187125681790913 14.133265249954414 1 0 0
2769 2 7.591996496936389 9.90538445932678 4.840976596630429 0 0 1
1357 1 21.497625186912067 8.95382884611095 4.216696677521841 0 0 -1
1698 2 22.55694413057003 9.935105245281592 12.947580452713176 -1 0 0
2859 2 13.926403950252908 3.96035510998954 8.6144713196723 1 0 0
581 2 20.550377092458945 8.61241360988692 9.831038231717066 0 0 0
1898 2 5.62078064633091 6.155476426734257 6.874527893534944 0 0 1
2260 1 4.079983028775921 7.288631215323317 4.331289162873256 0 0 0
479 2 19.50045178378125 5.861857627334596 7.509606002280158 1 1 0
468 2 23.36886043473462 5.390174780352067 1.815554742845744 0 0 1
2650 1 11.464502804957487 5.592159911673703 1.32545864639959 -1 0 1
496 1 20.14792072768498 7.725513770464644 12.95336387564884 1 0 0
896 2 21.04940891817423 3.4161032801635622 9.070026473361372 -1 0 0
2396 2 17.380529621915223 12.384760660638609 12.81011684594016 0 0 -1
2962 1 18.10205818202006 4.939392981900321 2.356095772564422 0 0 1
1460 2 21.195037127748105 7.450215693016415 3.7833985734554827 0 1 -1
1398 2 28.2470377006758 3.658734766557108 12.885152408207539 0 1 0
2731 1 6.361035506182277 5.270769046510899 3.6005311608167943 1 0 1
233 2 11.689510924677101 11.103186507895627 4.026074475699025 0 -1 0
1931 2 6.280189419151816 0.9056959794274332 7.475366303611957 0 1 0
2815 1 2.3609139308372096 13.794161671851175 10.72852584887321 1 0 1
3010 1 13.148014927939252 11.607263418027326 9.066873206182143 0 1 1
1778 2 11.968960177388253 3.3117334970962453 9.22341154077501 0 0 0
2204 2 10.729254952664292 14.258456938143551 5.46889950633209 1 0 0
2617 1 28.41616286501319 1.2282372787895566 5.4963715498696954 -1 1 0
401 2 4.303452963840541 10.267834905479665 9.053302598706674 1 -1 0
2403 2 9.241865175570835 12.70165546890464 10.758730380642424 0 0 1
2494 1 5.807990027326901 13.054871355217946 10.443804715746774 0 0 1
1417 1 2.385156718369612 4.788175934988792 12.77970748527966 1 0 -1