LAMMPS data file via write_data, version 8 Apr 2021, timestep = 1714000

1008 atoms
2 atom types

0.2809500580123096 18.11860494198583 xlo xhi
-0.03305334480988559 22.60344234481353 ylo yhi
0.2103145807370201 19.295401419258933 zlo zhi
0.07866027169136884 -6.458070981635269 0.0007533210795847247 xy xz yz

Masses

1 16
2 2

Atoms # atomic

1 1 6.511957075611977 1.25084893594879 5.1135498465439 0 0 0
3 2 6.536807173358792 1.5469396935256918 4.172604758585669 0 0 0
4 1 3.792879631698131 1.2329603324865506 5.199337859412564 0 0 0
5 2 4.764944967880896 1.075216178875194 5.110691989139154 0 0 0
6 2 3.794426491718056 1.5890264381573498 6.108350478256422 0 0 0
7 1 -0.4943335859995069 6.538278785945974 5.039932646040545 0 0 0
8 2 -0.6225701514433759 6.152687552467208 5.918014526654973 0 0 0
10 1 2.37394650106576 6.703256979695707 4.9604021613664795 0 0 0
11 2 1.400446106593653 6.95044069734214 5.085296611082665 0 0 0
12 2 2.876966007402171 7.530646836249497 4.934012620712192 0 0 0
18 2 5.872126143816772 5.113526136991857 1.3420135345572115 0 0 0
21 2 1.3038543767552369 2.1362737495633635 1.2715884306021756 0 0 0
25 1 4.623523459545205 6.335571643382424 7.388620328846048 0 0 0
26 2 5.3878470604840345 6.924804985014838 7.782880381212151 0 0 0
27 2 3.797306220107596 6.622767761037338 7.677056485848663 0 0 0
28 1 5.877973881611847 6.492106622905517 2.5358714784669383 0 0 0
29 2 5.679295748933552 6.085997016138975 3.409583004841356 0 0 0
30 2 5.288488088480017 7.285447152904434 2.4135017473606504 0 0 0
31 1 1.2284322221475286 1.077325156537219 2.5849863733733365 0 0 0
33 2 1.181857451804449 1.5629017516408712 3.451991721868253 0 0 0
34 1 0.554228231609381 0.8189293415325964 7.484249277051047 0 0 0
36 2 0.6358223161397896 1.539137198112032 8.187749909992087 0 0 0
37 1 6.12589378092906 2.6187323174026376 2.797169257357057 0 0 0
38 2 5.272592018051257 2.9472944958678124 3.185529166657255 0 0 0
39 2 6.762155029467589 3.311458645437305 3.0815567006068787 0 0 0
40 1 3.806243984323256 2.5105519307818938 7.520940200080033 0 0 0
41 2 4.755813674717278 2.7199712315005216 7.345294632196287 0 0 0
42 2 3.3282327217216845 3.353902537531922 7.2661498468283465 0 0 0
43 1 -0.0951764434582969 4.858363642746806 7.31060288425436 0 0 0
44 2 -0.8240235002595222 4.238783815724789 7.16665617778814 0 0 0
45 2 -0.1135240206822129 5.072758716343199 8.24411593578438 0 0 0
46 1 1.8474916672457147 4.998687386700986 2.7652011519591824 0 0 0
47 2 0.9248602767398388 4.827265953680862 3.023900552589135 0 0 0
48 2 2.1962561464313737 5.741735887530545 3.394042866624036 0 0 0
49 1 6.436642027037843 3.5866980440320577 6.623875032855601 0 0 0
50 2 6.082759632296841 4.272304952186568 6.058649359320407 0 0 0
51 2 6.45765881161948 2.7704043158958673 6.106602978591987 0 0 0
52 1 3.7687441021453267 3.551307480276838 3.6304024012405267 0 0 0
53 2 2.9757008781141434 3.931587424972768 3.1829874311733133 0 0 0
54 2 3.4733988326355347 2.8256751233689976 4.220393054477229 0 0 0
57 2 -0.027449826886508544 3.7235968567115245 4.301618699565464 0 0 0
58 1 2.2216632741221836 4.229988137787052 6.447928198059411 0 0 0
59 2 2.340187690923352 4.99282871818319 5.839590838972756 0 0 0
60 2 1.3416085474375379 4.4800969938910695 6.94111191007256 0 0 0
61 1 8.462006854407196 7.079277499439824 1.7852823783380998 0 0 0
62 2 7.568565167501383 6.852842536788269 2.130037036219299 0 0 0
64 1 2.249778691653722 7.249967493556134 8.3511574917898 0 0 0
65 2 1.5198450785981847 7.748915930970853 7.876880660555582 0 0 0
72 2 4.112739853477897 1.1455250414847133 1.118141435212348 0 0 0
73 1 5.1509379049979405 5.2598234679214615 4.835892172056217 0 0 0
74 2 4.726167380852061 5.83815304992339 5.469077658178936 0 0 0
75 2 4.420763967111006 4.748336634701205 4.43172684306395 0 0 0
76 1 1.1602946664990672 2.269558110817828 5.067337885511963 0 0 0
77 2 0.7183912675875882 1.7897551265693725 5.76693163939495 0 0 0
78 2 1.5159364119573773 3.0513831938401466 5.589241515811637 0 0 0
91 1 8.099205617386755 6.452499013711116 5.188983615674411 0 0 0
92 2 7.890432704505096 5.801976204690995 4.486019873059676 0 0 0
93 2 9.032379679624128 6.621082244658862 4.987226951603781 0 0 0
115 1 10.21229228251881 1.1329365790369088 2.5643690266585297 0 0 0
116 2 10.0506345017052 1.7627274432143831 1.79329044570095 0 0 0
118 1 9.450063997813345 0.7476516176439687 7.202231926346214 0 0 0
120 2 9.48899761521246 1.1504580292005135 6.331298400057184 0 0 0
127 1 8.631604649185851 4.881804202579086 7.33589545117239 0 0 0
128 2 7.986659989603591 4.127158585886747 7.316031850347466 0 0 0
129 2 8.45972526686236 5.372848695581031 6.490030561259135 0 0 0
130 1 10.509209075177221 4.855982545764094 2.120404916857819 0 0 0
132 2 10.669022156790252 5.52901542006369 2.8737020377441076 0 0 0
139 1 8.130235518735029 4.131786804351734 3.5743856273228394 0 0 0
140 2 8.828973843041439 4.285483365647767 2.890135607231993 0 0 0
141 2 8.597274859125847 3.526508976815828 4.2073072880516245 0 0 0
153 2 6.443331570181154 1.2241508539557164 8.83248211848987 0 0 0
160 1 9.58611374048539 2.323925014020649 4.867999038659419 0 0 0
162 2 9.85059507090365 1.9989042576267966 3.9915896236605906 0 0 0
169 1 6.676164799098791 8.746240492350008 4.9141389290297095 0 0 0
170 2 7.225419919443261 7.963641874827848 5.1865508951822665 0 0 0
171 2 6.75314399735828 9.433128717320084 5.610366737332501 0 0 0
172 1 3.912892073396386 8.810580392286473 5.0120719864688 0 0 0
173 2 3.8534463825251137 9.39957188691644 4.2791327064284435 0 0 0
174 2 4.903324993652992 8.483969265552536 5.066245611550226 0 0 0
199 1 1.4936956564021497 8.776736916501589 2.812885530154601 0 0 0
200 2 1.5040016793306927 9.518653942124134 2.160462702149849 0 0 0
201 2 0.8483777764130733 8.14212676869676 2.3918038895737617 0 0 0
202 1 0.15269477382805238 8.714241385201268 7.229600330323281 0 0 0
203 2 -0.7907328784101768 8.451689973515258 7.212773512814083 0 0 0
204 2 0.22426278804256605 9.252824522614322 6.373008083082589 0 0 0
205 1 6.333792468843174 10.40570205913519 2.871445037455264 0 0 0
206 2 6.595715109878523 9.728345228447097 3.6195356356979898 0 0 0
207 2 6.562075030842479 10.062745365707736 1.9496184619545587 0 0 0
208 1 4.028975409428913 10.004826985450935 7.351793371305594 0 0 0
210 2 3.778794772260914 9.594963115427287 6.4697067040084315 0 0 0
238 1 3.9866476034279312 8.327569645545408 2.103461878413795 0 0 0
239 2 3.046390593870994 8.40766086777806 2.397911140308936 0 0 0
240 2 4.104466874763666 9.030692593606744 1.427492657301658 0 0 0
244 1 0.8189631006710141 10.155495628420237 5.102617992303019 0 0 0
245 2 1.0660013102272252 9.679613625583823 4.285572039330658 0 0 0
283 1 10.39636254518748 8.926653726458516 2.74447292007082 0 0 0
284 2 10.269957685988507 9.372280166316866 3.635404279079049 0 0 0
285 2 9.67437290507309 8.30015319669296 2.6758109712756055 0 0 0
286 1 9.492308624597039 8.537734132581386 7.393034035005433 0 0 0
288 2 8.621343197090184 8.310090905611464 7.674649566306603 0 0 0
319 1 6.745256174153911 7.812239196537149 8.314810303419005 0 0 0
321 2 7.091384956143099 7.088257552762571 8.873250371628753 0 0 0
328 1 9.960766507539951 9.934792919969436 5.117867948290719 0 0 0
329 2 9.760917642854372 9.46647645117756 5.9020694064274 0 0 0
330 2 9.288468406097502 10.598969966402759 4.93672389446595 0 0 0
272 2 10.23334394137298 9.921878884875996 1.1390831212432289 0 0 0
320 2 6.489554682253722 8.56526404862144 8.942579016859256 0 0 0
14 2 4.867037580628954 5.194406914829875 8.724171094486742 0 0 0
192 2 0.1642708093380589 9.903520475142946 8.454243800875174 0 0 0
246 2 1.5401769853833733 10.70727042313963 5.451423017088652 0 0 0
66 2 2.8148502110637192 7.887436038134003 8.841404283760507 0 0 0
145 1 17.272453018874618 6.916727173545551 2.1034381212957225 0 0 0
94 1 11.163790133082356 6.029042801536386 4.5544464888749046 0 0 0
96 2 11.32567264399205 5.626582081556761 5.43039840511731 0 0 0
119 2 9.3858176812703 1.4089299410450955 7.857059006388466 0 0 0
131 2 11.093666800110622 4.181086317211625 2.4214253177390375 0 0 0
144 2 10.50262872370721 4.2284456254948495 7.053181251714916 0 0 0
161 2 10.261893323860216 2.8557515844230164 5.281336200235181 0 0 0
276 2 9.59062380948162 9.769354787668535 8.741473966967005 0 0 0
287 2 10.105492293767515 7.869076703709814 7.800501785153975 0 0 0
323 2 12.538905690471472 8.337486552844352 2.379311673367664 0 0 0
324 2 12.437949963507219 7.283017591348442 1.238434050323862 0 0 0
142 1 11.236423604544871 4.073691099961049 6.474371581223141 0 0 0
95 2 11.72676627426314 6.792556195409678 4.616543906296979 0 0 0
148 1 11.247946817510373 6.760548036177955 8.275295673449143 0 0 0
149 2 11.152001058169441 5.797004676823969 8.544476902039417 0 0 0
155 2 12.998196835055001 1.4214286127183509 1.3130016478199764 0 0 0
322 1 13.069517428785122 7.8790101986512555 1.6785944888248887 0 0 0
35 2 -0.2639052797695632 0.3674101793484687 7.762921740706141 0 0 0
56 2 -0.7256107439888562 5.135837788073158 4.0840658913652215 0 0 0
80 2 6.621194565965948 1.8317660884871 1.2379304038705128 0 0 0
401 2 1.8505984410488365 0.04499333231587195 7.902493412052226 0 0 0
70 1 3.80900021381089 0.3477362070620287 1.5921504599687857 0 0 0
63 2 8.665602495125626 6.284207059659082 1.2218820902692844 0 0 0
220 1 3.6238592606362645 10.856237941717641 3.071170602992443 0 0 0
304 1 12.987027197940545 10.530586287555181 3.6508615210925095 0 0 0
671 2 8.681776664651709 5.783820122383176 8.790372145754482 0 0 0
68 2 -2.1170235429876314 1.2946315107702686 8.867861508009065 0 0 0
291 2 15.724980356329297 9.492855950674999 1.5663884285772953 0 0 0
585 2 3.726569981194911 1.7798666222477943 9.110465600833374 0 0 0
89 2 12.468175322143514 1.54833694006556 4.179637212492469 0 0 0
136 1 12.420428124599118 3.3010093616900473 3.225077130820229 0 0 0
258 2 12.613842984965217 9.203650320745377 4.761915765441587 0 0 0
143 2 11.97715816649774 3.5394990266731003 6.872689305223852 0 0 0
157 1 14.159700097215282 4.673788080982085 5.037226318095191 0 0 0
150 2 11.842468531662822 7.281152830682137 8.926972344171476 0 0 0
88 1 12.658959701613536 0.7888304712654428 4.778069238952054 0 0 0
137 2 12.574833670366976 3.8089143199831184 4.00766903341558 0 0 0
138 2 13.319254604609975 3.2902570954463095 2.8307145952797175 0 0 0
306 2 13.80911399634504 10.370072052439818 3.177467737228763 0 0 0
256 1 12.687539378128793 8.412689204109869 5.281971752276418 0 0 0
101 2 14.625554963747529 4.996250745698993 1.2259860490880388 0 0 0
113 2 14.090341708255844 6.788279066947127 2.313134575823413 0 0 0
126 2 13.107651697643416 1.7450812316371247 6.444549980321637 0 0 0
294 2 12.827580145376153 9.27500386951755 6.797776170841321 0 0 0
90 2 13.629988215785776 0.6663787967281729 4.695031100509581 0 0 0
292 1 13.040216364475027 9.902498500324658 7.568567414707337 0 0 0
100 1 14.923828315914895 4.522054652032523 0.42465712969614755 0 0 0
111 2 12.709093946989961 6.625482081426104 7.186803846013866 0 0 0
257 2 13.715191629075564 8.217237773269819 5.254041207785357 0 0 0
124 1 13.13002617138888 2.329406199914487 7.224866467309852 0 0 0
159 2 13.764031743379627 5.379665782120199 5.670383895614886 0 0 0
112 1 14.620918743388303 6.018844745372798 2.659393562558179 0 0 0
123 2 15.77980796957207 2.2675807159449692 2.0325226519900004 0 0 0
109 1 13.614056394103311 6.330752831539191 7.115973763820023 0 0 0
121 1 15.445886007203242 2.678403967887131 2.879628659341901 0 0 0
289 1 15.772822457812053 9.866317719520334 2.4767200363281145 0 0 0
158 2 14.276360913303638 5.11903820050158 4.180213610714158 0 0 0
9 2 -1.1573214382715074 7.251887586458783 4.893713546061275 0 0 0
22 1 0.7319969056409827 2.5581848491739083 9.39661332439429 0 0 0
32 2 2.1756893196106746 0.9003706180429716 2.4465953617238014 0 0 0
221 2 4.5348506092912135 10.951241496436852 2.768629927156524 0 0 0
399 2 8.041748521993297 0.18489160366888963 1.1395476239584466 0 0 0
156 2 11.8791095110368 0.8235980790452506 2.2292174923721313 0 0 0
753 2 4.122195181289214 9.476540862774092 8.834087845706698 0 0 0
146 2 17.43503148473256 6.0358056248816006 1.574214598822648 0 0 0
271 1 10.235415451678197 10.307430240657627 0.23841299543612204 0 0 0
152 2 7.343493236558978 0.7167745436405759 7.5764587491245425 0 0 0
151 1 6.766716333439184 0.4298095214410081 8.31149045719639 0 0 0
836 2 13.047650621886799 9.142726954199562 8.892709616261078 0 0 0
520 1 2.0281745515087657 5.0092196454088525 9.670350374983531 0 0 0
237 2 14.81969094520601 7.663669159930568 7.665727960735485 0 0 0
86 2 16.288643631535525 0.3218694140599285 5.009968612877514 0 0 0
114 2 15.545234567804643 6.382398669547412 2.61105645959087 0 0 0
110 2 13.773010773845586 5.634917023343745 7.783651735827525 0 0 0
125 2 13.999415601474698 2.6906658106652843 7.1254351176429065 0 0 0
87 2 15.751823327177494 1.5182429030918665 4.1270420103730014 0 0 0
2 2 6.987766265482887 0.41604031580668904 5.271048155384586 0 0 0
16 1 6.030842196429104 4.751757972212587 0.4340246888655778 0 0 0
217 1 6.478208713503246 10.804858286257163 6.57112577513107 0 0 0
167 2 10.98387397488689 5.897000859439233 0.6024848149696185 0 0 0
99 2 13.108904207826647 4.739275014334225 9.497369903749856 0 0 0
83 2 2.195321105243198 5.621121026412386 1.057680305258077 0 0 0
253 1 15.492314281768593 8.564264164369536 4.987457929905977 0 0 0
601 1 17.562988741510758 4.7136796994843335 0.32709846163759354 0 0 1
486 2 11.911154988829576 0.13035127965988227 8.728066710423652 0 0 0
219 2 5.602112860278255 10.433946758014129 6.863477159492224 0 0 0
521 2 1.8583034945296495 5.797267622669993 9.079715787128759 0 0 0
163 1 16.185892148280217 1.3763460014195201 0.6718273710363522 0 0 0
79 1 6.878269334920629 1.5155597742435174 0.35549322744582923 0 0 1
236 2 15.344072842108698 8.949528989146982 8.49432119130292 -1 0 0
235 1 -2.25669721252843 8.037433814445093 8.11018948689477 0 0 0
248 2 7.792713856057404 8.420878234595207 0.8118632120641558 0 0 0
586 1 -0.7984118662510105 6.058911304500075 9.577024019082163 0 0 0
154 1 12.785276304865109 0.603108941686443 1.8174939719956835 0 0 0
17 2 5.339577855192181 4.088572497651322 0.25143535397433187 0 0 0
23 2 1.3302566385273775 3.3900172042329286 9.400998103480436 0 0 0
290 2 16.45299680817385 10.496799721263182 2.503429296492079 0 0 0
122 2 16.11648080865126 3.377347612941098 3.1772886964436453 0 0 0
165 2 16.75008442715649 0.6014159153613934 1.0144944470118957 0 0 0
254 2 15.610721418771158 9.293310236286027 5.657340535187357 0 0 0
293 2 12.5243016712104 10.71652477746912 7.416699418211315 0 0 0
82 1 2.637657008239259 6.200274993781383 0.34200725641160745 0 0 1
302 2 14.549148582731746 10.696441543909106 7.041279620948262 0 0 0
147 2 17.01591595441743 7.5868913395409825 1.3850179655121997 0 0 0
780 2 13.175272013860743 9.353456942142854 0.5919737007828566 0 0 0
670 1 8.416931802911469 6.240742172458671 9.629879428456537 0 0 0
209 2 3.516857899654743 10.83226396148087 7.324349055716605 0 0 0
247 1 7.14559141344472 9.057677904168456 0.48686776530551373 0 0 0
668 2 12.815145599165913 1.946977777406307 8.90053057336602 0 0 0
255 2 15.671781954228562 9.033010824881355 4.111335967397869 0 0 0
117 2 9.599323508963142 0.4176520641635104 2.343696819061916 0 0 0
84 2 3.1717454276219135 6.86901240939013 0.8154905971887119 0 0 0
97 1 14.06772914873036 4.838257352988814 9.59704082807867 0 0 0
301 1 15.172343105607592 10.912992238188721 6.3574725712934645 0 0 0
69 2 15.404362850523823 0.18500843126852987 7.805657520964254 0 0 0
85 1 15.751489904202462 1.1307814968452037 5.073865910048319 0 0 0
305 2 12.305208447659357 11.023538298588587 3.0615248924286416 0 0 0
134 2 15.370764781705146 3.8523964131214985 5.94766682569486 0 0 0
55 1 -0.4635678876811001 4.264808126185991 3.6215979009943515 0 0 0
19 1 1.4918793468228242 2.6596589797276025 0.4332645729156513 0 0 0
106 1 9.508270065932901 2.753227482538027 9.455235636432642 0 0 0
13 1 4.805459751167446 4.693782605026835 9.587162723012744 0 0 0
135 2 16.04463104945492 2.4367856653799476 6.096988346453016 0 0 0
274 1 9.679779451326146 10.270856317825666 9.60625261302846 0 0 0
584 2 3.100497831803425 0.38995210280732967 9.53111678761857 0 0 0
311 2 10.991440307964927 11.09903276221558 6.093984927174262 0 0 0
751 1 4.053734573562355 8.927813037219066 9.683396759259432 0 0 0
587 2 -1.6102075758470893 6.578741041076383 9.340377630492517 0 0 0
67 1 -1.8773496783367987 0.38399284035173525 8.598505088706817 0 0 0
133 1 15.835258889565482 3.2516877633742007 6.600833087687208 0 0 0
189 2 2.5567394055160437 10.614818448117662 0.391558103663868 0 0 0
190 1 0.35721768387141595 10.433292082140946 9.29659381235378 0 0 0
604 1 11.437588937484627 4.563563146879542 9.600948754047918 0 0 0
20 2 0.8899226340526321 3.4026108117174845 0.46551022191795205 0 0 0
187 1 1.6266741027698046 10.452449654097782 0.508163842944464 0 0 0
835 1 12.822871315339723 8.732538426071946 9.742774561207115 0 0 0
602 2 16.624194487751968 4.580100697484752 0.47675946410238856 0 0 0
667 1 12.563961179185105 1.4417906842821309 9.610223746959583 0 0 0
524 2 -2.73961075886295 3.676521481734264 9.716473999443611 0 0 0
15 2 3.816387101194575 4.651098525526659 9.563062778513984 0 0 0
331 1 16.002637568622355 8.350452467323072 0.22421912521350415 0 0 0
606 2 10.813030536684185 3.8098268695348683 9.601781604799452 0 0 0
102 2 14.205304025767786 3.8786196086606926 0.25426553995931855 0 0 0
809 2 10.791960591140601 10.377320307692408 12.690732904685163 0 0 0
574 1 0.612967854083545 0.05028539876299501 11.169539525338433 0 0 0
509 2 0.2504609178574868 0.2317652992728007 14.665876113146744 0 0 0
724 1 0.9992221745218397 10.9495884481998 13.036629366523865 0 0 0
815 2 8.552110353737605 10.830491654275185 16.70461412677596 0 0 0
711 2 2.187166609986973 10.33176076322912 11.948706521769497 0 0 0
797 2 11.00416820112898 10.218854494474666 16.753975829844293 0 0 0
168 2 4.513406516969996 7.016978186534428 18.678217578830726 0 0 0
808 1 9.963750441050719 10.65056596125647 13.058934054520368 0 0 0
837 2 12.735486628719809 9.376262316867681 10.470264629434615 0 0 0
249 2 1.033022228012556 9.383548865392854 18.70364128604383 0 0 0
903 2 4.641664454219298 0.03042909508152851 10.83760480382402 0 0 0
740 2 -4.9140809998209125 7.403203269497582 18.5062841662798 0 0 0
527 2 -2.1857097633768876 2.1402926011255077 18.270278784375254 0 0 0
834 2 5.9939365506340945 10.704992537797082 13.830778071018402 0 0 0
990 2 7.23027622501113 0.3188662887074724 17.407629490364965 0 1 0
593 2 9.383692647061274 0.37702778387281216 14.6646756480191 0 0 0
536 2 -2.308002693814253 0.609540992335432 11.962019608964507 0 0 0
505 1 3.5270144996911807 1.096442616757963 14.413772469709347 0 0 0
506 2 3.62719515143385 1.9223829448148757 15.042856677836598 0 0 0
537 2 -0.7232830716713496 0.827041955313115 11.891447701158633 0 0 0
508 1 0.85637144076199 0.9966471376579418 14.589530925350973 0 0 0
658 1 9.46453543574509 0.27270794235026063 10.89236098240132 0 0 0
510 2 1.7791462173960622 0.7207097049674711 14.54720732066614 0 0 0
511 1 -3.629993248831997 6.325578610066588 14.376993746643832 0 0 0
512 2 -3.6230576462909285 5.470325028059053 13.811454704012862 0 0 0
513 2 -3.548969662637238 6.032231371673385 15.325577988464659 0 0 0
514 1 -0.9007754955951832 6.5752279945221535 14.526796549806011 0 0 0
515 2 -0.7443244781399454 5.695237699538398 15.04945684739884 0 0 0
516 2 -1.8641953526923516 6.638833570810131 14.591711835568034 0 0 0
332 2 9.866452733480855 8.757602674585886 18.450826407350124 0 0 0
519 2 2.0456657430109724 5.461727112968881 18.149381993475995 0 0 0
828 2 8.968470306712787 7.8191266657538385 11.811338598747756 0 0 0
522 2 2.1535117204771503 5.38479755680445 10.552913052036718 0 0 0
812 2 4.322128523513635 11.238751507079803 12.574644960063043 0 0 0
571 1 -5.209269267675136 0.7009963927860998 17.820034913018567 0 0 0
620 2 6.645296899607543 0.18347769566065597 12.249949775044465 0 0 0
798 2 9.745582563296969 9.314622512105615 16.28788533499751 0 0 0
590 2 11.640018740281631 1.0428635207339003 14.277950129339938 0 0 0
529 1 1.6670255429583847 6.5870095574839045 16.40864773914105 0 0 0
530 2 1.734429918221859 6.090132239030851 15.505613523502818 0 0 0
531 2 0.8344563876248545 6.758511473933486 16.840900480131143 0 0 0
532 1 2.6448564108506125 6.131857541928355 11.959176255994766 0 0 0
533 2 3.5891593064906133 6.412136096093427 11.906855268201902 0 0 0
534 2 2.571296390455552 5.732709467726069 12.830767767509501 0 0 0
535 1 -1.5689947216037514 1.235171783638381 12.148552240575622 0 0 0
725 2 0.17522222423611095 11.270506534505703 12.569363836242582 0 0 0
752 2 3.6969865628885974 9.51407530503664 10.392251472048256 0 0 0
538 1 -2.6562034207224388 1.027130964417567 17.001200865170695 0 0 0
749 2 -1.3255786695844582 10.429576517639521 14.780752567516641 0 0 0
540 2 -2.5431985895913436 1.4553537877477292 16.105735918878835 0 0 0
541 1 3.257654504676757 2.510435563310489 12.154949160311439 0 0 0
542 2 3.3238098748946427 1.7714641451151556 12.834741202311585 0 0 0
543 2 3.3624413542808282 2.081937797932799 11.279826532405474 0 0 0
544 1 1.090468749283116 2.631836585112477 16.931067725781478 0 0 0
545 2 0.8941860304439528 2.2553104242234427 17.840535527552223 0 0 0
546 2 1.2193501051880942 1.7912274726979631 16.3248256129735 0 0 0
547 1 -3.407172556729154 5.176975614514607 16.88724112086909 0 0 0
548 2 -4.132380211989154 4.570138825853127 16.676048050563764 0 0 0
549 2 -3.4656738199313373 5.271647387073775 17.812571039206173 0 0 0
550 1 -0.8088207975764647 5.212142973989829 12.23277946755306 0 0 0
551 2 -0.38382531243750934 4.373635663399236 12.372187564932899 0 0 0
552 2 -0.7658519958176511 5.739020430456716 13.05866995829707 0 0 0
553 1 3.3554105961413923 3.338459725246901 15.804302426232848 0 0 0
554 2 2.5837837292959778 3.4038495340695136 16.314219855304124 0 0 0
555 2 4.1098544911809265 3.6493033121415226 16.342334077253273 0 0 0
556 1 0.8112194689200505 3.2321134310085267 13.037666269503976 0 0 0
557 2 1.5705166371624755 2.9764635390025727 12.450811991399622 0 0 0
558 2 0.7556329207478061 2.2838778240134685 13.553245950117711 0 0 0
559 1 -3.356539483461739 4.22492267371158 12.851455069017463 0 0 0
560 2 -2.5424036173100704 4.634178425907135 12.536010770058697 0 0 0
561 2 -3.0271809791357365 3.49672497994567 13.397771737119596 0 0 0
562 1 -0.941889712532163 4.240138500302202 16.035817069720455 0 0 0
563 2 -0.42762111143671727 3.6193438339851376 16.562807700035247 0 0 0
564 2 -1.659801568646416 4.6029200421348335 16.571986797324836 0 0 0
565 1 5.183211324911026 7.076977914950356 11.22476506075227 0 0 0
566 2 4.730682686724612 7.770361940219478 10.755926720359023 0 0 0
567 2 5.246954673616025 6.30029158618136 10.629011834783206 0 0 0
568 1 -0.6908900684279462 7.257518168113964 17.993551679205154 0 0 0
569 2 -0.8014254965573857 6.351284386619718 18.437601713183234 0 0 0
570 2 -0.4351489642505448 7.9568044947637135 18.6233652272277 0 0 0
98 2 14.268235343084411 5.406676315797485 10.396600001032228 0 0 0
572 2 -5.318838430404761 1.6187482697951672 18.15889158569632 0 0 0
827 2 10.44927032011636 7.226780132332303 11.814667598887535 0 0 0
539 2 -3.5826594469541146 0.852942574513279 17.150791485281427 0 0 0
576 2 0.9287818019386409 0.5665567285750659 10.442662276987194 0 0 0
577 1 1.9660004191625615 5.085015688422458 14.253859337446897 0 0 0
578 2 1.3225639453361904 4.417993261330059 13.944733825900263 0 0 0
579 2 2.637510760923548 4.530873863382765 14.653189263009098 0 0 0
580 1 -2.207930307944781 2.360285794486427 14.614886229663542 0 0 0
581 2 -1.726130316308084 1.9708704372631882 13.85494076769822 0 0 0
582 2 -1.5661143788537448 2.8893544150343735 15.099710377131746 0 0 0
810 2 9.316132881192503 10.997245927667134 12.442707963187683 0 0 0
610 1 6.53665361124387 2.7572072633425764 19.024103883644873 0 0 0
589 1 12.515505916418478 1.4150977916068919 14.10374575706022 0 0 0
523 1 -1.968826534635509 3.1253763016249767 9.993264865181166 0 0 0
591 2 12.415644732738787 2.068773614227179 14.892763015623581 0 0 0
592 1 9.869296570319303 1.222723541301873 14.85428361986569 0 0 0
826 1 9.78570857609965 7.671857225067578 11.303128349711846 0 0 0
594 2 9.533242721508694 1.8665783542317238 14.211583398457607 0 0 0
595 1 5.2558117491302 6.57755341515236 14.55983157588308 0 0 0
596 2 5.213356477374227 5.976299066263375 15.424346797251635 0 0 0
597 2 5.079093658624936 5.930504997275795 13.828301975872122 0 0 0
598 1 8.025967042969105 6.305184280875719 14.41776040564831 0 0 0
599 2 7.032446272818835 6.438223688631319 14.405582454443113 0 0 0
600 2 8.145119918503106 5.631436094822488 13.696187212120133 0 0 0
693 2 -1.5211506130115666 10.721318331272794 9.920739805463366 0 0 0
108 2 8.601618694475695 2.9160410355142137 9.799986104288875 0 0 0
517 1 2.061962543049731 4.976599161289445 18.977562028461165 0 0 0
605 2 11.514917185727573 4.9063420267950235 10.468370527030455 0 0 0
832 1 6.565199123022927 10.018490956907437 14.360280395118082 0 0 0
573 2 11.780680764236461 0.35584882567521825 17.46199747461368 0 0 0
825 2 3.363790746970185 8.916331800815787 18.037043476519305 0 0 0
609 2 6.736436097751356 2.3062881522534187 10.952652842270826 0 0 0
164 2 8.964771554290639 0.9725886663927166 19.292450571726366 0 0 0
611 2 6.400746632879791 2.3323984948660588 18.111246415154064 0 0 0
613 1 10.821210513258459 6.072460309947373 16.88681212509904 0 0 0
614 2 11.332321582722685 6.904613346474881 17.10232255872496 0 0 0
615 2 9.838081018124804 6.306558561438148 17.044292728466097 0 0 0
616 1 11.857226864149876 5.664892755998166 11.971240496677938 0 0 0
617 2 11.507547860720328 5.521447860479355 12.954153187598665 0 0 0
618 2 12.676462885991059 6.217158163049646 11.953155911474404 0 0 0
619 1 7.236266158104146 0.9917533423299596 12.27207113899023 0 0 0
721 1 3.7354525264596266 10.877129289693913 15.83789736428918 0 0 0
621 2 8.147114663109924 0.673328650499075 11.816340476457876 0 0 0
622 1 6.080559076022535 1.3282751475417653 16.652431718911746 0 0 0
623 2 5.111653125473185 1.163322600303524 16.83367820706921 0 0 0
624 2 6.24606244726033 1.73204731425929 15.758241971980068 0 0 0
625 1 12.083140558477078 2.8216139707232806 11.94821098619297 0 0 0
626 2 12.318905413619728 2.317306484268712 12.724380006260347 0 0 0
627 2 12.697799509598195 3.625337279643701 12.003624624798867 0 0 0
628 1 10.019905260818318 2.6959188508009517 17.19139212871379 0 0 0
629 2 10.045419763836394 2.5457886830469794 18.118657668593833 0 0 0
630 2 9.532156848994443 1.9938629648782242 16.7144441727794 0 0 0
631 1 5.441207244908154 5.018897828363647 16.929357172725155 0 0 0
632 2 5.38446910758481 5.588755489220183 17.771125800234497 0 0 0
633 2 6.375589797399914 4.687504225524126 16.69924580080389 0 0 0
634 1 7.700752148711991 5.080055284659042 11.91687108754428 0 0 0
635 2 6.723252240064754 4.946732508659048 11.929378096325383 0 0 0
636 2 7.923619722662712 5.332761880486821 10.982671235509258 0 0 0
637 1 12.379867017301908 3.4670120841251957 15.829468645268387 0 0 0
638 2 12.059337891688488 4.222271170845439 15.174617646760066 0 0 0
639 2 11.581485791241695 3.2829347467765904 16.439905701951265 0 0 0
640 1 9.688943161132794 3.3213626962405485 12.958508987321231 0 0 0
641 2 9.031264743423193 3.6598295069823883 12.349256386886932 0 0 0
642 2 10.55959730286392 3.263442040677074 12.506177528732822 0 0 0
643 1 5.13388071707916 4.218669705722266 12.820284052029836 0 0 0
644 2 4.520834336169707 3.558956916731337 12.427022270752012 0 0 0
645 2 5.634424520337873 3.7585709814581314 13.531016512647486 0 0 0
646 1 7.8573984393331 4.155966293571469 16.131696010103475 0 0 0
647 2 8.52520491943745 3.7396293130453446 16.687301664957822 0 0 0
648 2 8.31343553139167 4.940357994650046 15.741509034093777 0 0 0
649 1 14.167454994450408 6.914491596003801 11.341127658646856 0 0 0
650 2 13.745310008133975 7.660381738951771 10.902745251911973 0 0 0
651 2 -3.004448492556922 7.333180944513376 11.954103501407426 0 0 0
652 1 8.1582589965436 6.636943711110587 17.706399155792795 0 0 0
653 2 7.4121840153199186 7.026214353935416 17.355572130059244 0 0 0
654 2 7.945107889787736 5.895494968979992 18.275241123785698 0 0 0
191 2 0.5390443011688436 9.723324868840013 9.992624151022465 0 0 0
583 1 3.66458530554151 1.0813686910367482 9.866258511673344 0 0 0
661 1 11.055722206818311 5.295186548837556 14.401756090186023 0 0 0
662 2 10.866824506750891 5.744908881449022 15.238024981758947 0 0 0
663 2 10.302255690858802 4.792412426900497 14.083707683634191 0 0 0
664 1 6.499589344670421 2.433072526498192 14.492586756728766 0 0 0
665 2 7.248133239637942 3.0423351580661584 14.834925954908037 0 0 0
666 2 6.802323987768552 1.8139246131248703 13.771985220281382 0 0 0
81 2 -0.2581689295988752 0.8411135518239272 19.139928078110742 0 0 0
507 2 4.152314251845085 0.38031708471692216 14.704964637397373 0 0 0
986 2 13.638283358717532 0.28992424245532317 10.301844669945346 0 0 0
673 1 3.5636331600790667 8.457132418073787 14.022082753302469 0 0 0
674 2 4.116539840540193 7.735239513744112 14.408724186737349 0 0 0
675 2 3.634024554111295 9.215645041320188 14.595882551992927 0 0 0
676 1 0.9478965001521888 8.720885592787951 14.581829386785111 0 0 0
677 2 1.8369852777844904 8.423899059838487 14.273630108235341 0 0 0
678 2 0.365405373332085 7.882900046706346 14.586123708287095 0 0 0
525 2 -2.1257172923520895 2.750496681162966 10.855483041659939 0 0 0
669 2 12.416960197513479 1.9498416397369376 10.377405921989066 0 0 0
776 2 7.775559400472061 10.363484842819512 9.850650663335317 0 0 0
807 2 12.494840741545913 10.193740664395262 15.39536417647072 0 0 0
695 2 -2.138325215235222 9.823678480427477 18.038249544490203 0 0 0
275 2 9.861650508916602 9.589493709796491 10.313571568938219 0 0 0
703 1 -1.6840292757950046 8.734753688408441 12.189138009094835 0 0 0
704 2 -1.9457008317686133 9.234593139641225 11.387516129254525 0 0 0
705 2 -0.8026264838601087 8.416702252169893 11.843920762540668 0 0 0
706 1 -2.547913030691581 8.617812720292237 16.74151290842627 0 0 0
707 2 -2.5219283302209456 9.06979972662427 15.824042195738658 0 0 0
708 2 -1.8091965369586107 8.056081069596056 16.918940091549892 0 0 0