LAMMPS data file via write_data, version 15 Apr 2020, timestep = 3293000

576 atoms
2 atom types

4.4644162483974092e-01 1.7473559375134183e+01 xlo xhi
2.4144062483986595e-01 1.7268558375134308e+01 ylo yhi
5.9144162483996610e-01 1.7618559375134875e+01 zlo zhi

Masses

1 16
2 2

Atoms # atomic

184 1 4.3626727552990161e+00 2.3733667713260926e+00 3.0318167079137859e+00 2 0 1
185 2 3.6157925850694830e+00 2.8151501255124627e+00 3.4043578018217633e+00 2 0 1
541 1 1.9825378641876417e+00 4.0415725130585978e+00 3.3160738466606090e+00 1 2 5
186 2 4.0821300010122261e+00 1.4884137445538161e+00 2.8080733502755675e+00 2 0 1
543 2 1.9164276359138026e+00 4.2736521710636461e+00 2.3524539474292352e+00 1 2 5
69 2 2.0831327411761125e+00 8.6431150448736205e-01 2.0044153905747653e+00 -6 -1 -4
506 2 4.6688135348715809e+00 4.0960040472806031e-01 1.2335559080392822e+00 -2 -2 4
472 1 1.3313490091167228e+00 1.9764977922234188e+00 1.0725754219055346e+00 -2 -3 -2
474 2 1.0323704429725389e+00 2.7537422646433005e+00 1.5111820088177739e+00 -2 -3 -2
497 2 4.9667556632366807e+00 3.2159436056561130e+00 1.5930994885079239e+00 -1 5 -2
498 2 5.8600648686553969e+00 4.1775569735390450e+00 7.3504689175421500e-01 -1 5 -2
53 2 7.8497518621785787e+00 1.1294336899533719e+00 1.6479954857358943e+00 1 0 2
54 2 7.0926937261904310e+00 2.3395726487894923e+00 2.3482215993446109e+00 1 0 2
52 1 7.0405143851145624e+00 1.6943091491748179e+00 1.6109546477645662e+00 1 0 2
486 2 7.7588764325058452e+00 3.8924721482994071e+00 3.3490469362862152e+00 -3 1 1
484 1 7.1767806676760557e+00 3.2393052156604965e+00 3.7091072182654350e+00 -3 1 1
485 2 7.7682184367742684e+00 2.7304332600610457e+00 4.2562483967111415e+00 -3 1 1
50 2 5.6050642302305702e+00 3.5527504497613882e+00 4.6630909547566448e+00 6 4 -4
496 1 4.9571000822984486e+00 3.8093616076907413e+00 8.1158333522319093e-01 -1 5 -2
507 2 6.0069541674763789e+00 3.7558123522373921e-01 1.8922532719384890e+00 -2 -2 4
177 2 1.0350683332676864e+01 1.2650927033161976e+00 2.7593094664493609e+00 -2 -5 2
175 1 1.0602346670749563e+01 2.0548243002768363e+00 3.3210809668822852e+00 -2 -5 2
176 2 1.1451096467423435e+01 2.3817480521194740e+00 2.8867569525544114e+00 -2 -5 2
324 2 1.2080487275458733e+01 1.7226809050309082e+00 4.6257484877871535e+00 1 1 1
375 2 1.2612087443464777e+01 4.1626699514031724e+00 1.8549308166076430e+00 0 -2 4
373 1 1.2539596279248608e+01 3.1699678080241824e+00 1.8371291582155951e+00 0 -2 4
162 2 1.0360229029178543e+01 3.5751391042721670e+00 4.4588404562482955e+00 2 6 6
509 2 9.7272529976999387e+00 4.0767226922433704e+00 1.6226818336172872e+00 1 0 -2
374 2 1.2086581308546766e+01 2.9619863792547854e+00 1.0095919260952448e+00 0 -2 4
303 2 9.2253519427493469e+00 1.3431333720609868e+00 4.5737302032822171e+00 2 -4 4
530 2 1.7415738485121693e+01 3.8148517630271583e+00 3.6994369367671540e+00 1 1 4
8 2 1.4539526795934398e+01 3.2338935034332952e+00 1.3251991673825527e+00 4 3 4
459 2 1.5301481472314080e+01 1.1475404723713063e+00 1.5374309124337544e+00 6 3 -2
7 1 1.5466792321821465e+01 3.0579837207071145e+00 1.5103074040089537e+00 4 3 4
9 2 1.5539191270726439e+01 3.3892708184279288e+00 2.4351769611300957e+00 4 3 4
529 1 1.6520237159355496e+01 3.5820665884192526e+00 4.0192280623198533e+00 1 1 4
542 2 2.4359624192248783e+00 4.8066053389765973e+00 3.7571449904292269e+00 1 2 5
546 2 4.2697892308602281e+00 6.0633094202135558e+00 2.9821728931263451e+00 0 5 2
432 2 2.1408127245074855e+00 8.2611175844542117e+00 2.4928546560748051e+00 -5 -5 3
431 2 1.8984378294805890e+00 6.9428215398875883e+00 1.6840194668836972e+00 -5 -5 3
223 1 3.4707788505483430e+00 5.9434550132849697e+00 4.4424308765581362e+00 2 3 -3
430 1 1.4651698935964796e+00 7.7584320272434768e+00 1.9769873646699925e+00 -5 -5 3
544 1 4.6244345398988012e+00 6.2087350274208708e+00 2.1291849596498920e+00 0 5 2
545 2 4.4646656260145381e+00 5.3443480726369987e+00 1.6300496707031924e+00 0 5 2
31 1 1.4669950463286137e+00 5.0349981263233969e+00 1.0338822101404808e+00 -6 4 6
32 2 5.5050592198438253e-01 5.3247181317785515e+00 9.9701113111110629e-01 -6 4 6
93 2 8.5221192424139736e-01 8.7223204742322853e+00 7.2237489438916647e-01 1 -1 -1
477 2 4.4295531568246034e+00 7.3896280120041480e+00 9.6096697707641798e-01 0 0 -7
461 2 7.9672275154363046e+00 4.9512000612873468e+00 8.4680341005740523e-01 -1 7 1
41 2 7.2557641326029589e+00 7.8440617955053860e+00 2.0232150113039440e+00 -3 -2 2
309 2 8.0585438686954589e+00 6.6050147857619139e+00 4.1242057354391086e+00 3 -4 3
42 2 6.1304742127599656e+00 7.0469827013069350e+00 2.7244769915415823e+00 -3 -2 2
40 1 6.8514423159357483e+00 7.6757819406792152e+00 2.9358584171079469e+00 -3 -2 2
508 1 9.0584823016517788e+00 4.6597339409455154e+00 1.9651591794514400e+00 1 0 -2
470 2 1.0881973225265794e+01 6.8037993818614213e+00 5.9517848707648946e-01 -4 0 0
471 2 1.1192574419365677e+01 7.4361980466142112e+00 1.9426295588564104e+00 -4 0 0
510 2 9.4482907746351685e+00 5.5218987317779380e+00 1.8964388872860996e+00 1 0 -2
172 1 1.2387065986916902e+01 7.4131095346972904e+00 3.7303844475025194e+00 1 -3 3
173 2 1.2943000202334602e+01 8.1681930509507588e+00 3.5425338693131829e+00 1 -3 3
174 2 1.1915331003463074e+01 7.5792688611387291e+00 4.5902533595121175e+00 1 -3 3
469 1 1.0449872429112679e+01 7.1259240910016661e+00 1.4045769988564274e+00 -4 0 0
288 2 1.3120914259232830e+01 6.0762392851311748e+00 2.7406752822266176e+00 5 -3 -1
413 2 1.5376112345555482e+01 8.0338561965897455e+00 2.1190442629167685e+00 -1 1 3
286 1 1.3295291483987393e+01 5.7892269340787967e+00 1.7849420747045270e+00 5 -3 -1
412 1 1.5843164359167888e+01 7.7867531293680470e+00 2.9321138183189128e+00 -1 1 3
414 2 1.6798414726932663e+01 7.7200248234850299e+00 2.6343938104250366e+00 -1 1 3
218 2 1.5195332233796798e+01 6.6451107130135938e+00 3.7618148064563557e+00 -1 -1 -3
287 2 1.4215624701426673e+01 6.0887632961427638e+00 1.5627095490820464e+00 5 -3 -1
217 1 1.5112302922257921e+01 5.8813810668824349e+00 4.3717464362083938e+00 -1 -1 -3
219 2 1.5824216727728597e+01 5.2377300983304584e+00 4.1211451423630630e+00 -1 -1 -3
226 1 1.5842741635420911e+01 5.6321964770989039e+00 8.3738373424685519e-01 0 1 2
227 2 1.5658322954022372e+01 4.7113166257379424e+00 9.0960154337129995e-01 0 1 2
215 2 3.6978809273394688e+00 4.1461673664448123e-01 5.0553287629527022e+00 0 -7 3
515 2 1.1232477745064176e+00 9.6547029008709528e-01 7.3813801371577306e+00 2 3 -3
516 2 9.5295805939187961e-01 2.4746791265324966e+00 7.3957838350013612e+00 2 3 -3
405 2 2.8378434320125003e+00 1.8134299517948056e+00 6.8819146188904110e+00 3 5 -1
514 1 1.5485298720107441e+00 1.7710692999832367e+00 7.7217810193640020e+00 2 3 -3
403 1 3.6969047023030188e+00 1.9666707564947405e+00 6.3351838351316045e+00 3 5 -1
293 2 4.6606191910583306e-01 4.3772315792116272e+00 6.9723963189555622e+00 0 8 2
51 2 4.5054766672615782e+00 3.2284118249693332e+00 5.6327453250317943e+00 6 4 -4
404 2 4.2784092061971517e+00 1.6440533967570607e+00 7.0601132163591354e+00 3 5 -1
49 1 5.0104863542984841e+00 4.0085880459325667e+00 5.2951658468707192e+00 6 4 -4
302 2 7.9259305174028727e+00 7.2657741057505887e-01 5.1383464912452075e+00 2 -4 4
357 2 6.2855335517588573e+00 2.2308798528006104e+00 8.6522224685172784e+00 3 0 -5
356 2 6.7488485435367132e+00 2.4388868964654344e+00 7.2004319199161060e+00 3 0 -5
355 1 6.2099768304439564e+00 1.8451026422635870e+00 7.7397597585051869e+00 3 0 -5
301 1 8.5135142217671795e+00 1.5016129714749498e+00 5.2174850446882699e+00 2 -4 4
436 1 8.9562189059335751e+00 3.7893862099539311e+00 7.5199819514409567e+00 1 -2 0
132 2 1.1259867225195050e+01 8.8138763632040973e-01 6.3717757835969087e+00 0 3 -8
437 2 9.5109015845727161e+00 3.6122687679433931e+00 6.7123629317282436e+00 1 -2 0
160 1 1.0311994945504903e+01 4.1939091766931451e+00 5.2353986653315845e+00 2 6 6
322 1 1.2562848565032045e+01 1.8359989200156033e+00 5.4700954732204146e+00 1 1 1
254 2 9.3725626826132924e+00 2.5500194331286159e+00 8.5974736961733971e+00 -5 1 -2
253 1 9.5353167143707722e+00 1.6751180356910957e+00 8.9386788227534932e+00 -5 1 -2
131 2 9.7685329671897492e+00 5.2288166532083991e-01 6.2795262539723895e+00 0 3 -8
323 2 1.2709530287539527e+01 2.7791745416627096e+00 5.6041645492597496e+00 1 1 1
438 2 9.3529482887232280e+00 4.4776555713932567e+00 8.0439445437179664e+00 1 -2 0
179 2 1.5796891810727058e+01 1.7464675693062202e+00 4.8928158886693556e+00 -3 7 3
178 1 1.5264709599361915e+01 1.1443589740524327e+00 5.4363529077886721e+00 -3 7 3
129 2 1.3976629496868144e+01 4.3785489221971519e+00 7.6529428563234241e+00 -2 0 0
292 1 1.6857220060120071e+01 3.6543759818585375e+00 6.6807752651576422e+00 -1 8 2
180 2 1.4391930810837591e+01 1.6048989398893356e+00 5.4532788997653805e+00 -3 7 3
531 2 1.6520093043800941e+01 3.6322428235725068e+00 4.9872529514020254e+00 1 1 4
294 2 1.6135120430512764e+01 3.6978782064372662e+00 7.3546617650955781e+00 -1 8 2
127 1 1.4600609927693032e+01 4.0413806665970782e+00 8.3345202922534050e+00 -2 0 0
128 2 1.4154590142130308e+01 3.2727447034987933e+00 8.6662517356105262e+00 -2 0 0
390 2 1.3970592974616068e+01 8.2823772574176613e-01 8.9361735122564863e+00 4 -2 0
225 2 4.2051555659021655e+00 5.4534521491279042e+00 4.9296753761059096e+00 2 3 -3
224 2 3.1623796890474543e+00 6.6254460532838779e+00 5.0728473117341988e+00 2 3 -3
87 2 3.0115708806738470e+00 8.4303351641369613e+00 6.6759376081691837e+00 0 3 0
85 1 2.4669796846709584e+00 7.8036676206605664e+00 6.1236578973975693e+00 0 3 0
411 2 1.8117565674856320e+00 5.9268212888693474e+00 8.1927835629625143e+00 2 0 0
86 2 2.0473200805114784e+00 7.2104464619969573e+00 6.7675278461457458e+00 0 3 0
409 1 1.2145502174795739e+00 5.8717401678835133e+00 7.4601887543578833e+00 2 0 0
307 1 8.5000128417735414e+00 6.2991103823257060e+00 4.9071533875462316e+00 3 -4 3
308 2 7.6962110517981932e+00 5.9977734809557059e+00 5.4104443522120995e+00 3 -4 3
144 2 7.5137823792329996e+00 4.6956541122072659e+00 7.1346914761257922e+00 0 -1 3
143 2 6.0279685156722591e+00 4.7117726588223858e+00 6.3295914582835868e+00 0 -1 3
386 2 8.2047010392920043e+00 7.3996223863584101e+00 7.0243965438924807e+00 2 -3 0
142 1 6.6463002841663403e+00 5.1581515620627307e+00 6.9734903627020532e+00 0 -1 3
385 1 8.7140476531070163e+00 7.8788000674071865e+00 7.7363729827071364e+00 2 -3 0
204 2 6.3188614055473238e+00 5.3948709024631878e+00 8.4737404452321847e+00 -3 2 0
522 2 5.5846005641710770e+00 8.6220941806389462e+00 7.9325497238921212e+00 3 2 3
520 1 5.9391260062731037e+00 8.3309678190485208e+00 8.8287895848023332e+00 3 2 3
192 2 9.3699941950034376e+00 6.6037782374298777e+00 8.7946930642995138e+00 -2 -1 -6
161 2 9.7221314339687908e+00 4.8675481836491521e+00 4.9301275891833587e+00 2 6 6
73 1 1.0716709940945487e+01 8.4612985701879744e+00 5.6322965051345921e+00 5 -2 -3
75 2 1.0026801474776352e+01 7.9101081000302056e+00 5.9481353550808871e+00 5 -2 -3
44 2 1.2619156195392526e+01 8.5881895749175214e+00 8.2877650734677495e+00 6 -3 4
38 2 1.2204928404610861e+01 4.7543923199261187e+00 5.5844137944859318e+00 -3 -6 -4
37 1 1.3044680337133936e+01 4.5179965685473320e+00 6.0326263024613542e+00 -3 -6 -4
220 1 1.5454867444616886e+01 7.1433721503005270e+00 6.7592154470357784e+00 0 0 4
222 2 1.5390998699790373e+01 6.5436039443149134e+00 6.0071658477669878e+00 0 0 4
410 2 1.7470420875741279e+01 6.4486103030616508e+00 7.6859004428888618e+00 1 0 0
221 2 1.4758742911158222e+01 6.9089745277871843e+00 7.3962297504327763e+00 0 0 4
39 2 1.3699040630995823e+01 4.8964993700850412e+00 5.4292320983013136e+00 -3 -6 -4
370 1 1.3439314479918096e+01 6.8623654571096298e+00 9.0106746049266917e+00 6 4 -2
327 2 1.5061847764096946e+01 8.5018571843295785e+00 5.8797059103176279e+00 -1 -1 7
567 2 1.6434477663149198e+00 3.1075462882951657e+00 1.0930428259360076e+01 -2 4 -1
561 2 3.8322467787614642e+00 8.5190221205016503e-01 1.0871034747467844e+01 0 -5 -2
353 2 3.1919360029236050e+00 4.2944221222300820e+00 1.1597659664010852e+01 -1 3 6
55 1 2.1230514742224775e+00 1.6139152726006318e+00 1.0470731217319038e+01 -1 -2 1
57 2 1.4000382685220385e+00 1.0898189863989221e+00 1.0963591989853560e+01 -1 -2 1
352 1 4.0258511927805802e+00 4.0745094772410084e+00 1.2007412714717120e+01 -1 3 6
565 1 1.4135975429482661e+00 4.1039389873756678e+00 1.0870496018337382e+01 -2 4 -1
566 2 2.0116644520181106e+00 4.4740441208555763e+00 1.0152945363631975e+01 -2 4 -1
551 2 5.8271384541063775e-01 3.2080684112730382e+00 1.3291757945136579e+01 4 -5 4
56 2 2.1074612549612155e+00 1.4722721050406700e+00 9.5507596874609852e+00 -1 -2 1
559 1 4.7401656567965880e+00 5.5202244906141607e-01 1.1145974597022182e+01 0 -5 -2
491 2 7.0690733606407852e+00 3.0924204327809495e+00 1.0637908738514554e+01 1 0 -6
492 2 5.5478180749473136e+00 3.3385088953103534e+00 1.0604799486500868e+01 1 0 -6
490 1 6.2182095363225214e+00 2.6873067893688303e+00 1.0465408710921061e+01 1 0 -6
19 1 8.4297740215678392e+00 2.0829595841213955e+00 1.2715605632276096e+01 -2 0 3
560 2 5.3774410756687594e+00 1.3075463170608927e+00 1.0908863070389497e+01 0 -5 -2
137 2 5.5138822288112417e+00 2.7869098481977672e+00 1.2971664128226486e+01 3 -5 1
20 2 8.6614723231046327e+00 2.9866760767256864e+00 1.2567381286209253e+01 -2 0 3
21 2 7.5343008685340784e+00 2.1460393732020853e+00 1.3032166688667996e+01 -2 0 3
429 2 7.9790734515860882e+00 9.6564632626234104e-01 1.1137556952309703e+01 3 1 -9
255 2 8.7298863504717552e+00 1.4238707760334799e+00 9.4813374390800789e+00 -5 1 -2
427 1 7.6826564215497690e+00 4.2047559644018045e-01 1.0319160082213530e+01 3 1 -9
168 2 9.6142767392155797e+00 7.9170661020029587e-01 1.3290728237112676e+01 -2 3 -3
155 2 1.0732883999701196e+01 2.1105782972449347e+00 9.8823311012246524e+00 -4 -3 1
156 2 1.1243838049159908e+01 2.0374125027001786e+00 1.1320215867229173e+01 -4 -3 1
154 1 1.1529018513428467e+01 2.2435246903213257e+00 1.0421818755191049e+01 -4 -3 1
305 2 1.2064671893439744e+01 3.9971562821599695e+00 1.0416566975263429e+01 1 2 2
208 1 1.2524710722289017e+01 2.1890852632167253e+00 1.3333280556028193e+01 -3 2 -1
389 2 1.3048758640647993e+01 1.7732112936906634e+00 9.6489148670699301e+00 4 -2 0
209 2 1.3223128548390184e+01 2.4051010220542159e+00 1.2627023282267958e+01 -3 2 -1
123 2 1.6638085964294675e+01 1.0440935182012052e+00 1.2522645193575597e+01 -3 0 1
388 1 1.3904789857552364e+01 1.7818447496533658e+00 9.2210450767613565e+00 4 -2 0
289 1 1.4530990557221818e+01 2.7604992904791548e+00 1.1793278175409718e+01 2 -2 -4
291 2 1.4566278184230473e+01 2.4922045630413692e+00 1.0862979477200959e+01 2 -2 -4
290 2 1.5475872332628738e+01 3.0306304842823879e+00 1.1987223787398619e+01 2 -2 -4
121 1 1.6853256051239903e+01 4.4406535720804796e-01 1.1749017135312611e+01 -3 0 1
70 1 2.2504519217168530e+00 7.8809664989362087e+00 1.1109744357447822e+01 3 2 -3
279 2 2.9913164340022065e+00 6.5095606813387628e+00 1.0018426988534877e+01 -1 1 5
72 2 1.4427724139724847e+00 7.9216719172520733e+00 1.0603918977634498e+01 3 2 -3
71 2 1.9895913397394618e+00 7.7137629342431016e+00 1.2032865778631278e+01 3 2 -3
277 1 3.0415971977941125e+00 5.7152315520011339e+00 9.4086695695431750e+00 -1 1 5
354 2 4.3238306014652803e+00 4.9228718505375646e+00 1.2447548724256981e+01 -1 3 6
278 2 3.9818255385740788e+00 5.5939394852449738e+00 9.2335308445160500e+00 -1 1 5
203 2 6.0374015696300543e+00 6.7307722508882621e+00 9.1890111961679004e+00 -3 2 0
340 1 7.9341807229075769e+00 4.7585787558147290e+00 1.0835740271744429e+01 -1 0 2
342 2 7.1655716442359596e+00 5.3035793046470676e+00 1.0528460863040811e+01 -1 0 2
22 1 7.3519431028240581e+00 7.2928589692792105e+00 1.2377765355345991e+01 1 -6 -3
341 2 8.2115659745609868e+00 5.0538752155328313e+00 1.1709233958028710e+01 -1 0 2
158 2 5.8318800110340403e+00 6.7906989445236814e+00 1.2778622959239504e+01 -3 5 -8
157 1 5.0654545315276058e+00 6.3990667635343188e+00 1.3302642645740091e+01 -3 5 -8
24 2 7.5186397347431519e+00 8.0232599682973813e+00 1.1772444222888364e+01 1 -6 -3
23 2 7.7422877476999048e+00 7.4631833968668593e+00 1.3244108349805886e+01 1 -6 -3
202 1 5.9376157309145929e+00 5.7406972230338491e+00 9.3343466157825858e+00 -3 2 0
145 1 8.9913440709874415e+00 4.9928681983750609e+00 1.3278095270270008e+01 5 3 3
191 2 9.0168477849752744e+00 5.4551029945621217e+00 9.8116651165501878e+00 -2 -1 -6
273 2 1.1956916600927912e+01 6.1790593476736575e+00 1.3091390651911027e+01 0 0 0
271 1 1.1208802190447507e+01 6.8673153126278725e+00 1.2985185730554425e+01 0 0 0
304 1 1.2091123515920655e+01 4.9402941786717909e+00 1.0497294697592270e+01 1 2 2
306 2 1.1222670135956266e+01 5.2329433899615028e+00 1.0262038523790583e+01 1 2 2
120 2 1.0700494772831075e+01 7.9929837655297842e+00 1.1458471315254538e+01 2 -3 0
272 2 1.0392586457942917e+01 6.3486711365512285e+00 1.3209243183100147e+01 0 0 0
371 2 1.2951859883199335e+01 6.1036302332035284e+00 9.3466713093142335e+00 6 4 -2
190 1 9.7135684484589362e+00 5.7919864360529392e+00 9.1947769932629342e+00 -2 -1 -6
58 1 1.6892959156371383e+01 7.7851223619523120e+00 9.5748312271831431e+00 -1 -3 1
351 2 1.3498876833414011e+01 4.7803542960172276e+00 1.2447544146498048e+01 -3 -5 0
365 2 1.6727994974203526e+01 5.1427705390800931e+00 1.0672075379190437e+01 -1 3 -3
349 1 1.3556419203297978e+01 5.4383919033994239e+00 1.3155210017253019e+01 -3 -5 0
141 2 1.5916377154205851e+01 6.7890083583757628e+00 1.2198236518014394e+01 -3 -1 -2
140 2 1.5017180643858229e+01 8.0719399074536256e+00 1.2358061930490907e+01 -3 -1 -2
364 1 1.5876081593119125e+01 5.5631775517836575e+00 1.0351719794888856e+01 -1 3 -3
372 2 1.3700855846680172e+01 7.3353832337115730e+00 9.8724288553052411e+00 6 4 -2
139 1 1.5313629068832627e+01 7.2282755799364597e+00 1.2788094063930822e+01 -3 -1 -2
350 2 1.4286785569255299e+01 6.0524829902719510e+00 1.3029492904958824e+01 -3 -5 0
366 2 1.5366267194826094e+01 5.0522886780982397e+00 9.7092983929989920e+00 -1 3 -3
59 2 1.6442557520475518e+01 6.9464133906050423e+00 9.8943990599103504e+00 -1 -3 1
60 2 1.6192759762225798e+01 8.4303362513046896e+00 9.5836859647488222e+00 -1 -3 1
473 2 2.0954535841954360e+00 2.1051188561716812e+00 1.7529838262627685e+01 -2 -3 -3
198 2 3.3292319707348543e+00 3.4828553016492481e+00 1.3458156179049050e+01 0 -7 -4
134 2 4.0714078784008807e+00 1.3219082784476466e+00 1.6046117610568231e+01 5 -4 -2
133 1 3.5699180604313074e+00 2.0939409153094974e+00 1.6470299651671660e+01 5 -4 -2
196 1 2.7362491198839902e+00 3.5696938816462214e+00 1.4247845768176019e+01 0 -7 -4
197 2 2.9555021420879464e+00 2.8280554070885389e+00 1.4829695994541286e+01 0 -7 -4
135 2 4.1899120895543494e+00 2.8429987947006352e+00 1.6632129296693130e+01 5 -4 -2
136 1 5.8479345628037009e+00 2.1709313072157119e+00 1.3643448062864486e+01 3 -5 1
153 2 7.2195828492461072e+00 8.3930581384474923e-01 1.5222574853754086e+01 3 0 -1
2 2 8.4897481573399123e+00 2.5979604113018246e+00 1.6112639917166035e+01 0 2 -1
138 2 6.1418423941881528e+00 2.8032758423996986e+00 1.4352202336490423e+01 3 -5 1
1 1 7.5389559118788023e+00 2.3433838365713613e+00 1.6144136635989653e+01 0 2 -1
3 2 7.4820926411491406e+00 2.1689349955382897e+00 1.7107894088704253e+01 0 2 -1
210 2 1.2653265988696365e+01 1.2754332129534773e+00 1.3648296320290658e+01 -3 2 -1
377 2 1.0676539231693740e+01 3.0707792750598664e+00 1.6260715636978830e+01 -4 -4 -1
381 2 1.2667612922674815e+01 1.1188195321163308e+00 1.6514111992137565e+01 3 -5 2
5 2 1.1826855100058994e+01 3.1266651662501372e+00 1.4240418021101535e+01 1 3 -4
378 2 1.0610989117145328e+01 1.8727794277637699e+00 1.7226959740606731e+01 -4 -4 -1
4 1 1.1119467620258375e+01 3.7087841892834996e+00 1.4768517043424628e+01 1 3 -4
376 1 1.0365929951807324e+01 2.8482014295554485e+00 1.7207550361536857e+01 -4 -4 -1
147 2 9.6482178588998444e+00 4.4808099514969202e+00 1.3780610701878087e+01 5 3 3
6 2 1.1474649090739502e+01 4.4331084608411651e+00 1.5327058819460772e+01 1 3 -4
379 1 1.1928408140504011e+01 7.8705890753188246e-01 1.6976320897901847e+01 3 -5 2
499 1 1.6928563695584351e+01 1.2765130201835770e+00 1.5824886178126764e+01 -1 0 -2
550 1 1.6802218151512221e+01 2.7979409913671569e+00 1.3597561920484406e+01 3 -5 4
552 2 1.6940862194114942e+01 2.3024426912683733e+00 1.4412593086521687e+01 3 -5 4
501 2 1.7459270314202307e+01 1.5359172265673966e+00 1.6552524017741259e+01 -1 0 -2
234 2 1.5722919331269837e+01 4.0741639974594541e+00 1.4865637668998948e+01 -1 4 2
232 1 1.4888121135271142e+01 4.4520657398866117e+00 1.5150426861097319e+01 -1 4 2
114 2 1.4242792867615050e+01 3.1837588433101986e+00 1.5686832580103635e+01 -2 1 -7
112 1 1.3926675350942501e+01 2.4103917783644380e+00 1.6228418375048136e+01 -2 1 -7
113 2 1.4748840154909148e+01 1.9474565825050034e+00 1.6132092528125497e+01 -2 1 -7
500 2 1.7289492557201434e+01 3.2578607216745775e-01 1.5751092627896812e+01 -1 0 -2
475 1 4.4278214947164862e+00 7.9914063553845134e+00 1.7210024979750429e+01 0 0 -8
159 2 4.5372150613785136e+00 7.1955464719709141e+00 1.3629970004114725e+01 -3 5 -8
164 2 4.5355131438678669e+00 8.3570683295372241e+00 1.5398620481336714e+01 5 -2 -3
170 2 2.3695159945211364e+00 8.0591304132374901e+00 1.4173622579382984e+01 0 3 -6
163 1 4.0410516504054392e+00 8.4100609733360283e+00 1.4529293156921444e+01 5 -2 -3
169 1 1.5075328205785679e+00 7.7324134749218238e+00 1.3711199875988536e+01 0 3 -6
33 2 1.8168382711085578e+00 5.3128692707417899e+00 1.7166783596741755e+01 -6 4 5
171 2 1.3213675928139694e+00 6.9731102713326143e+00 1.4268916318960013e+01 0 3 -6
265 1 2.3295375368621531e+00 5.8453645811960513e+00 1.5583590152625350e+01 -3 0 2
267 2 2.4870460946990591e+00 4.9589609473279213e+00 1.5167471733934578e+01 -3 0 2
266 2 3.2168280588401679e+00 6.2542015878821404e+00 1.5714513927020587e+01 -3 0 2
280 1 8.2926501822153931e+00 8.5767298529499350e+00 1.4972037732904765e+01 -1 1 -5
460 1 7.2278802525144625e+00 5.1650226089477496e+00 1.7239536022696523e+01 -1 7 0
462 2 7.0934724406235725e+00 6.1466771072702748e+00 1.7357705856940633e+01 -1 7 0
80 2 7.5981700598918867e+00 8.2878444381828018e+00 1.6467647344142222e+01 -2 1 0
454 1 6.5730833632009285e+00 4.6075805133870764e+00 1.4615294609601058e+01 0 0 1
456 2 6.0334111073575150e+00 5.3271998497316710e+00 1.4315984786527682e+01 0 0 1
81 2 6.1043579711716385e+00 8.1288651090723558e+00 1.7063393917969890e+01 -2 1 0
79 1 7.0421488939867656e+00 7.8402733805317233e+00 1.7205587909238510e+01 -2 1 0
455 2 6.6379495454414021e+00 4.7852624439194837e+00 1.5609147334155786e+01 0 0 1
146 2 8.1270018056813669e+00 4.8662845516652924e+00 1.3804136608397286e+01 5 3 3
433 1 1.1818762450709828e+01 5.7878192798613561e+00 1.6241821314146890e+01 -4 5 0
282 2 9.2500482274738722e+00 8.5275567224986979e+00 1.4817124132018821e+01 -1 1 -5
435 2 1.2448990080887777e+01 6.4327645688770501e+00 1.5861285027879054e+01 -4 5 0
183 2 1.1211490543303562e+01 8.2272141098837785e+00 1.3913084086990041e+01 -8 -5 -2
434 2 1.2259949520080188e+01 5.4891100502225187e+00 1.7080698827126266e+01 -4 5 0
513 2 1.4366365526628826e+01 7.8589270956700572e+00 1.5991564418290293e+01 0 1 -6
233 2 1.4460268757625723e+01 4.8314101907132736e+00 1.4350397210650366e+01 -1 4 2
285 2 1.5962406560578392e+01 7.3268909766351946e+00 1.4672836644600769e+01 2 -4 -1
228 2 1.5836929056161312e+01 5.7679206090533892e+00 1.6874203462170346e+01 0 1 1
284 2 1.6481314313557405e+01 8.1612338385021026e+00 1.6051955281633617e+01 2 -4 -1
283 1 1.5976622301242148e+01 7.3417463988127718e+00 1.5677282112272076e+01 2 -4 -1
511 1 1.3434766951589062e+01 8.0330764372940280e+00 1.6267501589021506e+01 0 1 -6
493 1 4.1607495485940298e+00 1.2207138836130271e+01 3.4604582590868924e+00 2 -3 2
536 2 2.2248400749463029e+00 1.0041861556894904e+01 3.5403905491246417e+00 3 -1 -5
534 2 3.6784134911034601e+00 1.0560743833286383e+01 2.1873738805364917e+00 3 4 6
316 1 1.1533395163918980e+00 1.1144225938467567e+01 3.2404038471088787e+00 3 0 4
317 2 1.4265667280626588e+00 1.2095938732710612e+01 3.2800982949894442e+00 3 0 4
494 2 4.1306964253621921e+00 1.2374731577422851e+01 4.4532055926326990e+00 2 -3 2
537 2 2.6183648209600694e+00 8.9402788929477151e+00 4.6035435130288791e+00 3 -1 -5
535 1 2.9277178655955813e+00 9.2246790780374965e+00 3.7084702531590219e+00 3 -1 -5
532 1 4.1618576622231833e+00 1.0458083961943853e+01 1.3487109434151914e+00 3 4 6
495 2 4.6200136473073155e+00 1.2952751994876587e+01 3.0447423625613568e+00 2 -3 2
345 2 3.1211302599946573e+00 1.2381680862660131e+01 8.5199150403514956e-01 3 -1 2
237 2 4.8609434809351386e+00 1.0048015758671172e+01 3.9990568331904086e+00 0 1 1
235 1 5.7592426542571360e+00 9.7900200624628297e+00 4.3201472047949725e+00 0 1 1
187 1 7.4588792958939472e+00 1.1722338037559958e+01 3.7969724023216092e+00 1 8 1
188 2 7.4492225648303831e+00 1.1568938057996641e+01 2.8768975414031326e+00 1 8 1
189 2 6.5715623584265961e+00 1.1284941806413158e+01 4.0323273204819667e+00 1 8 1
241 1 7.0326756713831653e+00 1.0680731277518120e+01 1.0005658335255876e+00 -3 7 -2
533 2 5.0953098947002013e+00 1.0715087473401896e+01 1.5219230510307336e+00 3 4 6
243 2 7.9282829268205326e+00 1.0205206487199341e+01 1.0622470141206624e+00 -3 7 -2
236 2 6.2669501279255657e+00 9.1831105557996953e+00 3.6767628552920426e+00 0 1 1
256 1 9.7579559232208197e+00 1.0413049128856239e+01 3.9079042435796216e+00 -3 4 3
62 2 1.1454554497861901e+01 1.1034271025877347e+01 3.4575895754252817e+00 2 -2 1
61 1 1.2275345717040169e+01 1.1280698899581148e+01 3.0033635541538883e+00 2 -2 1
312 2 1.1526326437600478e+01 1.2528502352060064e+01 1.7982119721476588e+00 -3 0 2
63 2 1.2970073413878824e+01 1.1466517847908833e+01 3.6501708211922059e+00 2 -2 1
212 2 1.3185355684513937e+01 1.0033434834120099e+01 2.3084657441685716e+00 1 -3 -1
257 2 9.0542679040772800e+00 1.0973305748826915e+01 4.2778707978175046e+00 -3 4 3
258 2 1.0021554081364851e+01 9.6893956710280609e+00 4.5008839252235209e+00 -3 4 3
195 2 9.5451595790950261e+00 1.0089744964584860e+01 2.1899692574129483e+00 1 2 0
193 1 9.4265817973429797e+00 9.8859241019359700e+00 1.2765482004613093e+00 1 2 0
194 2 9.6599630318969361e+00 8.9412900387533227e+00 1.0814825651148294e+00 1 2 0
318 2 1.7271153119041479e+01 1.1203066293610350e+01 2.8916407965155253e+00 2 0 4
502 1 1.5539861979563527e+01 1.1233640024116085e+01 2.2621200848846041e+00 -2 3 3
504 2 1.4977071327152675e+01 1.0439852882208871e+01 2.1495182495245322e+00 -2 3 3
503 2 1.5892917068944664e+01 1.1494844093828481e+01 1.3526421902802761e+00 -2 3 3
211 1 1.3826424509373343e+01 9.3656228178011869e+00 1.9503943111366291e+00 1 -3 -1
111 2 1.5217509138582930e+01 1.2959198318631929e+01 3.3226201644083786e+00 -1 -2 1
326 2 1.5355530883549367e+01 8.9960788496898321e+00 4.4747072351016897e+00 -1 -1 7
213 2 1.3532005971326797e+01 9.1804868261479040e+00 1.0388955579760735e+00 1 -3 -1
401 2 2.7878304892533636e+00 1.3488606641156769e+01 3.3231328653467158e+00 -1 5 -3
105 2 2.9156101154908183e+00 1.5800739390811835e+01 1.0163274974453351e+00 0 0 3
400 1 1.8848431073541467e+00 1.3676033826052015e+01 3.4351144005219254e+00 -1 5 -3
67 1 2.4688753103633987e+00 1.7188125685734704e+01 2.5198472680702606e+00 -6 -2 -4
68 2 1.6549566392122015e+00 1.6762569658412083e+01 2.8459349105528982e+00 -6 -2 -4
402 2 1.6979490518478935e+00 1.4117011182488344e+01 4.2555602140138253e+00 -1 5 -3
216 2 3.7056630941990210e+00 1.6556863027360130e+01 3.8082655224451041e+00 0 -8 3
214 1 4.0739157070148142e+00 1.6640024430325106e+01 4.7031814698670118e+00 0 -8 3
505 1 5.2099730826192276e+00 1.6899644891947034e+01 1.8014158599578431e+00 -2 -3 4
330 2 8.2431626636249895e+00 1.3882011036393893e+01 3.3290270352274125e+00 2 5 1
12 2 5.1491157395748770e+00 1.5250754407720244e+01 1.8924473243249751e+00 8 -1 4
10 1 5.1678382751423495e+00 1.4244137892259353e+01 1.8327496925823372e+00 8 -1 4
329 2 7.3189972325812622e+00 1.4358775207836135e+01 2.1574424393134697e+00 2 5 1
328 1 7.9878402954601953e+00 1.4639681401117743e+01 2.7726000231466452e+00 2 5 1
441 2 7.1982199915944101e+00 1.5964506815968468e+01 4.0155773219540789e+00 6 -1 1
440 2 5.8585444216809321e+00 1.6627879758425792e+01 4.5455322369306312e+00 6 -1 1
439 1 6.8625118842007389e+00 1.6588430760347840e+01 4.6717848345234332e+00 6 -1 1
11 2 5.2630936040515195e+00 1.3996921905605019e+01 8.9477332964167910e-01 8 -1 4
310 1 1.0900703833120341e+01 1.3145414524281779e+01 1.4374482385152128e+00 -3 0 2
468 2 9.5645588961245096e+00 1.6853271323418298e+01 7.2008358573755349e-01 3 -2 -1
466 1 9.3900905091393323e+00 1.7083688682419975e+01 1.6810554866253831e+00 3 -2 -1
467 2 9.4664146925730286e+00 1.6396203955443639e+01 2.4243042975865121e+00 3 -2 -1
311 2 1.0380739856190299e+01 1.3291989659315101e+01 2.1857178014378222e+00 -3 0 2
538 1 1.2722406139772485e+01 1.6462951199941521e+01 2.3678716094588719e+00 8 3 1
29 2 1.1388914072807230e+01 1.6000585494351867e+01 3.4919569548348122e+00 1 0 4
28 1 1.0507345927006858e+01 1.5811191652449770e+01 3.9326124512783647e+00 1 0 4
443 2 1.3061385143901937e+01 1.4752198957660625e+01 1.3890768398964515e+00 -3 0 -4
201 2 1.0037336070400599e+01 1.4285758186187751e+01 4.1251943561597564e+00 4 -5 -1
199 1 9.8171009549989598e+00 1.3356933902619245e+01 4.3064120471595357e+00 4 -5 -1
30 2 1.0611704623443396e+01 1.6258440900174719e+01 4.8004836432746192e+00 1 0 4
540 2 1.2275255258843272e+01 1.6935283521464982e+01 1.6326022790102410e+00 8 3 1
442 1 1.3819013985306025e+01 1.4296979997514759e+01 9.2708591819711272e-01 -3 0 -4
539 2 1.3693953294393136e+01 1.6605401954536539e+01 2.2885602707001516e+00 8 3 1
519 2 1.4857277175122190e+01 1.4931762553116412e+01 4.2126924331489608e+00 3 1 -5
458 2 1.5685223851426096e+01 1.6874855651928527e+01 7.8085166323869459e-01 6 2 -2
89 2 1.6484701176728301e+01 1.6662789634312212e+01 2.8571981344697632e+00 -1 -3 4
88 1 1.7190745873488787e+01 1.6173608947141641e+01 3.3216046885086694e+00 -1 -3 4
90 2 1.7071420711508793e+01 1.5210425078535454e+01 3.1513980347086021e+00 -1 -3 4
110 2 1.5086447648666757e+01 1.4042772648799934e+01 2.3881775340701048e+00 -1 -2 1
109 1 1.5570285515865164e+01 1.3884372032453577e+01 3.2176694633923710e+00 -1 -2 1
457 1 1.5312691618589383e+01 1.7200536238548693e+01 1.6499636349583466e+00 6 2 -2
101 2 1.7102729479830605e+00 1.0609651455769686e+01 8.2877400859307215e+00 -1 -1 5
363 2 9.2287162087395880e-01 1.1392631928678396e+01 5.0942527136801061e+00 -8 0 -4