LAMMPS data file via write_data, version 8 Apr 2021, timestep = 21759000

576 atoms
2 atom types

0.23106330887196277 17.688937691103014 xlo xhi
0.0260623088733952 17.483936691103963 ylo yhi
0.37606330886946476 17.833937691104772 zlo zhi

Masses

1 16
2 2

Atoms # atomic

16 1 2.7958384074035214 1.1192398708408404 3.471224840811339 -1 2 1
17 2 2.653321278421554 1.4654530829269865 4.367357828769323 -1 2 1
335 2 2.363493611879842 0.22505114954668326 0.815419721969653 2 -4 -1
437 2 2.515093848293672 3.9004695630198736 4.436448483060738 -5 -2 5
436 1 3.405329337402259 4.173551124423911 4.308139772189311 -5 -2 5
193 1 1.211310873471706 3.3080234016187777 2.5409321256797353 -3 3 1
194 2 1.544979104870237 2.561923570254704 3.02612350170481 -3 3 1
18 2 2.383278301836662 0.2641903496703826 3.4928878951961653 -1 2 1
110 2 4.478649259035858 3.782988901064342 3.2654183423739602 -1 -2 0
195 2 0.6162943857311324 2.8947355691119645 1.8953149535347364 -3 3 1
514 1 0.5376836148366474 0.4397770556902812 1.3460070515492268 4 0 1
336 2 3.7241779802075676 0.7923148434626414 0.5832838465885258 2 -4 -1
405 2 4.786882626014809 0.4443594563542926 3.6819823053559944 3 -3 -5
109 1 5.138590397821545 3.4866748783644796 2.593586967523864 -1 -2 0
111 2 5.435470733699686 2.6104279361832456 2.84764737130726 -1 -2 0
403 1 5.704735747792322 0.7586929717167686 3.7476461707332036 3 -3 -5
291 2 4.834063529698612 2.7031452314443762 0.7874814491806484 -3 3 2
376 1 8.691996057293103 2.5390480291129855 1.6952928027642655 3 0 0
377 2 8.196189944730067 1.6465605683564626 1.5792741680914142 3 0 0
554 2 8.765229355317151 2.11153129191247 4.690211795026569 -4 0 0
378 2 8.685093901962675 3.0244415848050195 0.8764760172605847 3 0 0
553 1 8.734082177534189 3.0530670575853733 4.4196708310110635 -4 0 0
248 2 6.861945535087351 0.2780620451578331 2.4505906734763285 -1 3 5
247 1 7.528345235337107 0.14219959039314198 1.8195835904541953 -1 3 5
404 2 6.102537516299898 0.5343990476353792 4.6518358574265 3 -3 -5
555 2 8.555994718416937 2.9418756587390607 3.5035163853081484 -4 0 0
329 2 0.7022419507195503 5.661688257932409 0.6808192714353132 -2 2 -2
476 2 2.016038617467179 4.885616140385386 1.977926024345914 0 3 1
252 2 1.866856066099534 7.193512191690052 2.387582380686682 2 -2 1
475 1 1.9966578228597665 5.820945862163989 1.667210384609289 0 3 1
250 1 1.8171777083213738 8.105895920900542 2.840234183469501 2 -2 1
450 2 2.5952799883598128 8.337205035230435 4.344782151276278 0 3 6
477 2 2.8660538079043465 6.007021723986559 1.277222296109639 0 3 1
178 1 4.026503071167715 6.927360113482644 0.6678331752195624 3 -3 -1
286 1 8.644438369604227 5.928511571592937 1.9004932229255636 -1 2 3
534 2 7.016693552319166 5.817037196861125 2.4480615008626723 1 3 2
532 1 6.020732167039952 5.890209030135992 2.5689679382998776 1 3 2
533 2 5.721227317028461 4.9435718009125456 2.518523277506667 1 3 2
524 2 5.659890224989511 6.749203113223008 3.7948280253631865 4 2 0
523 1 5.5977164637295065 7.268699328730146 4.6836345281943945 4 2 0
146 2 7.357296873615703 8.553487853297822 1.2730095819258473 -4 -7 -2
180 2 4.750292834504819 7.0668190667998285 1.2700757275270778 3 -3 -1
34 1 7.751219676146057 8.618742555992132 4.6830148090849795 0 3 -5
35 2 6.8234211578175925 8.226016134400819 4.613562857435638 0 3 -5
145 1 8.34413098691824 8.567539539806443 1.185601627169062 -4 -7 -2
288 2 8.67620193911677 6.921562248063641 1.7350798939309118 -1 2 3
372 2 8.814697128722381 5.121367029841755 0.4729530091334355 -4 -2 1
251 2 2.100111734029849 8.768656882798004 2.183834409483135 2 -2 1
239 2 3.138018130887721 10.885528330357989 1.366928960317798 1 0 3
62 2 3.55456709883994 12.045244252173392 2.944751275198095 -3 -1 -2
61 1 4.0328271736373 12.294591476417864 2.1394165495985162 -3 -1 -2
238 1 2.865138318438853 10.042758657447468 1.0363376278032075 1 0 3
314 2 1.5416148388570785 11.028301646194388 4.392089421193061 -2 1 2
63 2 3.3859344366803845 12.979207898048912 1.7467643726834727 -3 -1 -2
240 2 2.020093792663706 10.181901632418509 0.5564659862886862 1 0 3
313 1 0.5756210580103155 10.937695981532906 4.182852447991079 -2 1 2
408 2 5.387997963125281 9.041508006561624 2.7058141399627376 -1 4 1
36 2 7.907920345281376 9.35111863172511 4.039653940367468 0 3 -5
406 1 5.623989039716238 8.832382551897513 1.7444188698860266 -1 4 1
458 2 7.657471772547749 11.293099115735883 2.68284097957393 0 -4 -1
457 1 8.436205948760183 10.71662787671157 2.64591277481466 0 -4 -1
407 2 5.3593452467086875 9.658734924122173 1.2356794519553562 -1 4 1
427 1 6.801494899876423 12.972546338324456 2.56908179183606 2 1 0
429 2 5.863284772418189 12.849938738539889 2.3747737278668177 2 1 0
147 2 8.541184111577781 9.411656427170229 1.6004439701275313 -4 -7 -2
53 2 2.314152024711153 14.903079024985958 0.6210298256951995 1 1 0
30 2 4.516694315909715 16.075910562187577 0.8108793231628351 0 2 -5
52 1 2.160185885069385 14.39179499853857 1.4696162394855783 1 1 0
54 2 1.204845252893241 14.166606616987506 1.3452418380918638 1 1 0
99 2 1.9134016869890809 15.520556637051868 2.8622657021909177 0 -2 -1
97 1 1.724493020280625 16.116570868955613 3.632152284973116 0 -2 -1
98 2 0.7792276065022903 16.0647299086282 3.8202815419260174 0 -2 -1
334 1 3.258409147370839 17.441102561124463 0.5863803957107767 2 -5 -1
25 1 7.686534460638637 14.771889044064453 4.3182840166433865 2 1 -2
568 1 8.33407984325233 13.875631547879578 0.5995374059414447 2 -4 4
27 2 7.295236806363478 14.078922349811464 3.8305784973007087 2 1 -2
428 2 7.3380388484066685 13.295532138899839 1.8217406914137462 2 1 0
249 2 8.210594678312637 17.18502209483585 2.3808301329416626 -1 2 5
28 1 5.199074375902863 15.34481700548035 0.6571618804983345 0 2 -5
29 2 5.975330406341364 15.85797453825716 0.8740266693438321 0 2 -5
417 2 4.211957997643825 1.3806962506172782 8.437105450767826 -1 -2 2
472 1 0.7999772439440326 3.3546457790825333 5.620599627439312 2 -4 1
474 2 1.4873221793092228 3.773655964351753 6.180479667000762 2 -4 1
39 2 2.9268783241699428 3.6772609646176346 8.091702196739426 3 2 1
415 1 3.802136225499709 2.093966592935225 8.862735761410676 -1 -2 2
473 2 0.3166835516285229 4.013245824566966 5.1305197768613 2 -4 1
80 2 0.3466846446096384 0.7321196640867029 6.813174711110929 1 4 1
538 1 6.663358792871402 0.9584593583495546 6.029031554797349 4 -1 7
305 2 7.531486698912638 3.9483895268991263 6.680427444451058 0 1 0
304 1 6.637192100821295 3.624235074532839 6.825897061189748 0 1 0
306 2 6.569338155665048 2.7909530988791436 6.2265365215099235 0 1 0
540 2 7.513990380120843 0.4299851782310723 5.982945710858383 4 -1 7
539 2 6.045960124768195 0.580310210483183 6.710546513705865 4 -1 7
144 2 6.329716277452106 3.379657633693512 8.424453295785462 -1 7 4
438 2 3.7303738915822153 4.656543184078068 5.072945659979025 -5 -2 5
448 1 3.314940031566671 8.572411833550165 4.9539137021012865 0 3 6
37 1 2.55022104776548 4.406304647685811 7.537260911619757 3 2 1
38 2 3.291692455020747 4.834961102065395 7.06168504131664 3 2 1
222 2 3.9820071524281575 7.392649226686923 8.08044359408022 8 -1 -4
22 1 2.2639274591984213 7.805376176956178 7.552209357853235 3 -2 -3
23 2 1.5777008190531945 7.812512906816931 6.857332869107456 3 -2 -3
24 2 2.2387777455648448 8.65572298533794 7.956182356433663 3 -2 -3
449 2 3.0364484301995947 8.405237903962668 5.877759638623185 0 3 6
209 2 1.8898299333086521 5.372847688183404 8.6683998936264 -2 -5 3
525 2 4.753941270111506 7.725453165272145 4.782049945822952 4 2 0
185 2 5.2353206560453005 4.897430683846525 6.456905645227463 -2 4 1
20 2 8.753787251416924 8.065023685689738 8.92802587702234 4 1 0
220 1 4.774736466676464 7.573990062362589 8.636844062685405 8 -1 -4
184 1 4.628690589157252 5.633154996050886 6.394624519474589 -2 4 1
95 2 6.3889838799494285 6.841033006442262 8.307957667014161 -2 -3 1
186 2 5.082679746453204 6.300933995090303 5.859097785036838 -2 4 1
94 1 7.36641798256935 6.728216248531973 8.183466617194968 -2 -3 1
96 2 7.402180544668293 5.921767377324152 7.699513114165668 -2 -3 1
567 2 8.896473627113608 7.611869781716012 5.541955561515935 2 2 -3
455 2 3.3503792133322947 10.590279363036279 5.1079134774808415 2 3 -4
454 1 3.0364454134596164 11.473299978232236 4.880643806305018 2 3 -4
256 1 2.832322264028415 10.494467153277492 8.539595604620528 5 3 2
456 2 3.286604108241972 12.01302981176223 5.6279986835925575 2 3 -4
258 2 3.7513745857317913 10.400273194017702 8.202044326970988 5 3 2
526 1 2.8249188659737734 13.070928146336856 9.010362353396781 -3 1 -3
528 2 2.964081759013384 12.145137672082999 9.067202327922416 -3 1 -3
138 2 5.864074200786242 10.290331459342747 7.231998995853738 3 0 0
136 1 5.091910288035317 9.783324080233825 7.402855519555737 3 0 0
282 2 8.57987087756316 9.710256522284002 7.3971207293725705 1 0 -1
137 2 5.392375387993487 8.969113838356082 7.923228702352389 3 0 0
59 2 5.275322875915224 12.937671920397065 7.09737776034123 -5 -3 2
280 1 8.252185753456573 10.211485598337475 6.650937186123912 1 0 -1
278 2 7.2597145936554375 12.580081831815042 8.410674066438744 0 -3 -3
279 2 7.452156741935243 11.796523979654832 7.08670328669806 0 -3 -3
277 1 7.071508114901901 12.652699827348677 7.432329040275871 0 -3 -3
281 2 8.06306039438708 9.519049324027637 5.889138714711303 1 0 -1
243 2 1.2916673986258567 16.53460484608065 7.923819205009205 3 2 2
60 2 3.7694735553503023 13.26752372397518 7.710692314882213 -5 -3 2
58 1 4.414958848143719 13.347569271814228 6.911738354470555 -5 -3 2
344 2 4.268097944134261 16.85672838551834 6.837709063599371 -3 3 -2
89 2 4.0060549446952365 14.718974488200438 5.9713785987866155 -1 0 -1
88 1 3.708253041592236 15.655393689816586 5.712004927504252 -1 0 -1
90 2 3.1871565749822897 15.586334057345274 4.940657901291286 -1 0 -1
242 2 1.9442538642178229 16.01009215533638 6.5585184020540455 3 2 2
241 1 1.1909558956206383 16.568485300282106 6.94010768262394 3 2 2
82 1 8.384900243146525 14.937454535426019 7.45166400346128 1 -3 0
26 2 7.2823942361725456 14.832478739346934 5.178814877093042 2 1 -2
84 2 7.673013948495935 15.272447118726678 7.9940580595643 1 -3 0
345 2 5.278927467856266 16.64612541781547 8.129780868999834 -3 3 -2
343 1 4.835027263601527 17.354521964707548 7.487388098647151 -3 3 -2
83 2 8.024200438698967 14.032860427659305 7.34295789694295 1 -3 0
355 1 6.295554034215862 15.911337476901474 8.998969351762922 -5 -4 -1
101 2 8.877169207388224 16.344989666313783 6.340994729581587 -4 -4 3
175 1 3.6122660972375953 1.5516193516524788 11.5061500448162 -2 -3 5
255 2 0.9624284710190916 2.982800077942612 10.834849120978816 1 2 1
176 2 3.4973261007498984 1.7054048162401143 10.550613501680466 -2 -3 5
177 2 2.942593750279638 2.1807127070160446 11.87534460318781 -2 -3 5
253 1 1.7423666677258165 3.448912667850971 11.16399394618118 1 2 1
254 2 2.143365731022375 4.089035893561844 10.556196135344683 1 2 1
463 1 1.065823726338429 0.5902646265060001 12.831925900370411 1 -1 -2
465 2 1.8705929298562363 0.3443782321561374 13.32556204866434 1 -1 -2
546 2 0.7757787223412492 0.9350155854911718 9.947995019855075 1 -1 6
160 1 7.620519510408015 3.4743408310372783 13.31168256172156 3 -1 -4
107 2 5.269993284678245 1.5665055516499993 12.648998239839841 1 1 2
411 2 8.190924416838861 0.8420416323555433 10.159859563903833 -3 0 2
409 1 7.185193484508727 0.7719420388570014 10.050636422882981 -3 0 2
410 2 6.831394429025608 0.9069110047183842 10.930397582915848 -3 0 2
108 2 6.674155627328376 2.0125300190265976 12.969713557178169 1 1 2
106 1 6.11754786171926 1.2472078404761162 12.89492194885198 1 1 2
143 2 6.448832774520986 2.54440025440654 9.616008055644283 -1 7 4
161 2 7.536560713985194 4.159555600966739 12.622411171990183 3 -1 -4
142 1 6.07233410381154 3.3501268299429148 9.342208830367188 -1 7 4
162 2 8.577824054746525 3.1112341474922203 13.307943821826179 3 -1 -4
416 2 4.634849480819929 2.6310076990863247 9.124137273050776 -1 -2 2
182 2 3.192690447227019 5.523423954122882 13.382969995126912 -1 3 2
506 2 1.0084361172195886 4.942492206067708 12.121822258204855 0 -1 6
318 2 3.2805868101736073 8.386546232002587 10.965852621987915 3 2 -4
316 1 2.4685412699946827 8.276287317044272 10.46153235990934 3 2 -4
317 2 1.7522986405379997 8.50096208730999 11.091194642930638 3 2 -4
210 2 1.9214882723789486 6.601904492077507 9.49049577652151 -2 -5 3
208 1 1.4733894688918725 5.76460816977942 9.524418637678533 -2 -5 3
183 2 2.5943421818835533 6.771227202707491 12.888437183860402 -1 3 2
181 1 3.38641787104142 6.268356217289435 12.836431277448842 -1 3 2
342 2 4.428926687783832 5.977790635659576 11.632511187788559 1 -1 -3
505 1 0.4432750735913626 5.303756370138664 12.809371224938577 0 -1 6
299 2 8.635028897878959 4.396620535729152 10.387144381696514 2 2 -4
341 2 4.8364539789189465 4.769493525124066 10.805516446735263 1 -1 -3
340 1 4.954655180040311 5.712486107085379 10.844892362960987 1 -1 -3
395 2 6.761205195502281 5.952024671350834 11.459203545199086 0 -3 1
394 1 7.652180380646699 5.660439030425714 11.677977960312635 0 -3 1
396 2 8.205578889953197 6.261489839329036 11.164244668506253 0 -3 1
425 2 5.657790867151044 8.723470798867154 11.1219344519637 -7 0 0
424 1 4.884349267841445 8.672101183195364 11.691485319657561 -7 0 0
221 2 4.721644572367291 7.045418660789739 9.424977719315516 8 -1 -4
426 2 5.326641379080777 8.604431841615355 12.579043563838894 -7 0 0
353 2 0.9483521823612608 12.06080676681016 13.01959349968397 1 -3 -2
257 2 2.8221444654403287 9.877932745569613 9.253003510505728 5 3 2
228 2 3.334889611672469 11.109097162304721 12.444599001284411 -4 -1 2
226 1 4.05756634208609 11.137722841495115 11.876978123877322 -4 -1 2
227 2 4.308439887760899 10.244906292675763 11.719587778609299 -4 -1 2
301 1 0.5131755112960505 9.10858530662243 12.469273976752648 3 -2 1
303 2 0.2643697649665704 10.023102510493452 12.242305332772219 3 -2 1
302 2 0.941629216503878 9.276268253953726 13.35789097021202 3 -2 1
433 1 7.026673987540596 9.030386256203224 10.225763717563972 5 -1 -3
435 2 7.329825847273751 9.90145866071037 9.917938640368842 5 -1 -3
434 2 7.780462080729696 8.770707132163711 10.72515963023949 5 -1 -3
230 2 8.710335126245692 11.963587262066415 9.88535695378714 -5 -4 -2
125 2 5.4973216826810125 12.040874199877653 12.003011092096397 0 6 0
126 2 6.730090820437481 12.55540574418314 12.866967491088488 0 6 0
229 1 7.7037002147543 11.790371707728605 9.832642712520675 -5 -4 -2
124 1 6.312638392339152 12.53964410734888 11.951885810191259 0 6 0
231 2 7.184721140383499 12.096210863377271 10.638826424487494 -5 -4 -2
464 2 0.5587699642615129 17.250041710457708 12.597627557752858 1 -2 -2
557 2 3.473533707367128 17.344390131009927 12.020434619592587 -2 -2 0
235 1 1.4655005388732796 16.84904209565511 9.845865860330694 -1 -6 -3
87 2 1.2079096490622734 13.15879125160904 9.465909737835444 1 5 3
237 2 2.2498635274235532 16.663735446819476 10.37894060618071 -1 -6 -3
558 2 3.454410211320881 16.086999884767643 12.937760224994005 -2 -2 0
556 1 3.452332396213507 16.35743878066586 11.999785182029406 -2 -2 0
527 2 3.3367549595412433 13.541918401143132 9.818410503911787 -3 1 -3
522 2 4.30166144611669 15.007386145189491 11.128844611393209 5 4 2
236 2 0.7137757855530936 16.336489851823572 10.226110873486562 -1 -6 -3
85 1 0.27122920228618314 13.223997722729571 9.844535635336655 1 5 3
470 2 6.647408638196903 16.7761273920178 12.905486028639936 -3 6 -2
520 1 4.675795217664423 14.293603996002746 10.5222942240721 5 4 2
471 2 7.92995827162507 15.947587187668255 12.681754808743293 -3 6 -2
469 1 6.966744027758169 15.933642476428746 12.630843283557832 -3 6 -2
521 2 5.296585571154529 13.724038054145579 11.040815826773521 5 4 2
357 2 6.587410443711091 16.63315895087002 9.554095547527693 -5 -4 -1
356 2 5.904444037187863 15.242582531513488 9.577701732786187 -5 -4 -1
117 2 2.7972749624439226 1.5987774929348404 16.41105237764206 2 -3 -1
116 2 2.361050743640496 2.6155307109264183 15.439774643551534 2 -3 -1
115 1 2.2379907315683174 1.6585402068763662 15.628411848295697 2 -3 -1
373 1 2.8772786338322014 4.225706432851889 14.930158185515626 -3 3 -2
374 2 3.659035703420834 4.258816755188345 15.530922794995835 -3 3 -2
152 2 0.37808389161661826 0.9416364477349234 15.609224420028902 2 4 -1
45 2 6.135329073979456 0.8763104732640177 14.719955198804643 -5 -1 5
44 2 5.5963216061183365 1.328337887391792 16.140895502285577 -5 -1 5
43 1 5.867395655605279 0.5869548227546972 15.586860476710998 -5 -1 5
290 2 4.991614254625333 3.3809251230929984 16.87066335165861 -3 3 1
289 1 4.940999878743984 2.453618895941144 17.310590201864247 -3 3 1
375 2 2.2610747619544047 4.936564169000171 15.27950129381875 -3 3 -2
261 2 0.5623643220277489 5.998154287913041 14.283561973855953 -3 0 1
260 2 1.518000958948287 7.0215111995667066 15.218729995124484 -3 0 1
259 1 1.0350385032811176 6.164358127083764 15.134502329083213 -3 0 1
511 1 2.1110664108234976 8.702160651236422 14.82114754238657 0 -1 2
512 2 3.0606851088736944 8.720710448664418 15.063215637827307 0 -1 2
179 2 4.030069824828074 7.618892484109084 17.470250743140006 3 -3 -2
273 2 8.886409171348268 7.379260467968935 13.526546193727347 1 -5 0
371 2 8.518424020523197 4.7602987727305734 16.416815077738406 -4 -2 0
499 1 4.973909691222615 4.737578309994775 16.464393858301193 1 -1 1
501 2 5.923213550327407 4.905507731476164 16.294193501154382 1 -1 1
500 2 4.777039731425509 5.477070931386671 17.130322667614262 1 -1 1
129 2 7.464107221826627 4.507537368799984 14.759495206141137 0 5 -4
413 2 7.283477488668527 8.409552180216762 14.195203640894784 5 2 -3
127 1 7.401456223641511 5.291974907314347 15.398413097409474 0 5 -4
271 1 8.419713142139406 7.46357715634396 14.36226369180664 1 -5 0
128 2 7.691748847256235 6.128249602507784 14.937672449073805 0 5 -4
479 2 5.270374741878008 8.635554212740876 15.27276715356378 -3 -3 1
478 1 4.620371205197806 8.609969096319551 16.01912760203265 -3 -3 1
352 1 1.4673794574198717 11.575622750628797 13.611224355621355 1 -3 -2
513 2 1.685448540678785 9.186114675227554 15.576292772706584 0 -1 2
112 1 0.6833816759690784 10.24588960189768 16.726273007028254 -2 -2 -3
114 2 0.9971117449931302 11.161594017949673 16.40430197081212 -2 -2 -3
354 2 1.592631739206501 12.199739386188494 14.316878292596693 1 -3 -2
379 1 2.102838737168968 12.56318457350964 16.081510943799668 -2 -2 -3
380 2 3.0126950237806374 12.743899112678312 16.32568565315616 -2 -2 -3
113 2 0.2787305064497332 10.403044706206236 17.60078559251069 -2 -2 -3
310 1 4.738859693372271 13.08486674491653 16.4453003451377 0 -1 2
171 2 8.48340886789371 11.890259881700704 14.347695763092343 4 -1 0
462 2 8.336705971656992 11.264533678746638 16.29828363432598 0 -1 -1
480 2 4.927944575624478 9.324796200543341 16.569612119850127 -3 -3 1
169 1 7.565136003624585 11.709133477061307 14.641991967263419 4 -1 0
412 1 6.521376321932078 9.016314415024318 13.855149621693187 5 2 -3
414 2 6.669115177275034 9.962580741466557 13.940187910430668 5 2 -3
292 1 5.797043824458681 10.695686405823215 17.358657093381968 3 -2 0
170 2 7.248216003620302 12.571472320006079 14.962729455748509 4 -1 0
294 2 6.7468967521872045 10.760765012357476 17.39114916550577 3 -2 0
461 2 8.330914142072068 12.092177143685403 17.559851733293087 0 -1 -1
460 1 8.564549223050046 11.24482421018554 17.233852849198254 0 -1 -1
293 2 5.412093122992236 11.398624941235099 16.849885464126963 3 -2 0
42 2 1.2568106744819818 16.261562262828893 16.33141955566406 0 -9 -4
168 2 0.5961650623559339 14.733508867528117 14.806411058197273 1 -2 -2
40 1 1.727692511061787 15.402128121952051 16.238125261469087 0 -9 -4
381 2 1.6706641822914856 13.388489445662398 16.422868611470054 -2 -2 -3
214 1 4.129595351363678 16.198111339382383 14.936374400697833 1 -3 -1
41 2 2.542142198769538 15.729474832704463 15.772550927218399 0 -9 -4
466 1 6.507123911662824 14.288345386253871 14.762514981854938 -2 -1 -2
468 2 6.4491404167313595 14.647571354687365 13.86175832979598 -2 -1 -2
118 1 7.8257685621206905 16.071319927638203 16.48766608972309 -3 -1 -1
311 2 4.908768367036572 13.747011512976625 17.159880168799223 0 -1 2
570 2 8.098184201810813 14.580393616313764 17.439650953689334 2 -4 3
119 2 7.198276529580261 16.808359623960293 16.297451127456554 -3 -1 -1
467 2 7.051520498505378 15.013367538097334 15.214771625302259 -2 -1 -2
120 2 8.67151388850866 16.3279124579312 16.04204603096044 -3 -1 -1
216 2 4.623769699371037 17.066680495138872 15.296274089470504 1 -3 -1
215 2 4.855944699960862 15.575538819061446 14.89428543655898 1 -3 -1
312 2 5.222342230403252 13.468237585863397 15.707714114818376 0 -1 2
441 2 10.057553142496944 1.7622705082414656 2.0475267771948196 -4 5 -1
323 2 12.056318224872683 2.0477797323029083 3.460996644706569 0 4 3
322 1 12.450130752221254 2.8831660659647493 3.67060615648502 0 4 3
324 2 12.765911351681885 3.3936817088301794 2.8667660587985395 0 4 3
9 2 10.053926010266206 4.354582001864074 4.230325606031277 3 -1 -2
439 1 10.880687620083023 1.2043586060292326 2.065378298466379 -4 5 -1
440 2 11.140206580500793 1.2217819499115021 1.1506336857706745 -4 5 -1
547 1 13.237966184071029 4.363631729508272 1.7885011443692225 1 -6 -1
453 2 13.471499634338668 0.45880344577710275 2.9095607432730652 -2 2 -1
392 2 15.784821275722054 4.341523154103591 3.6914333482497153 5 2 7
384 2 14.023678303977679 2.8495822987430577 4.474038307870958 -1 2 1
121 1 15.690314606035491 3.571147056315906 1.0342680310158392 1 3 2
383 2 15.440788008629738 2.3871929788501505 4.604166904511251 -1 2 1
217 1 16.465120706323447 1.1047726075756654 3.489772521817945 -1 -1 2
219 2 15.643500882091164 1.1136599581710573 2.9129869930614882 -1 -1 2
451 1 14.146711610064294 0.7041904843563966 2.251395184718083 -2 2 -1
452 2 13.619069002436175 1.2820148929245998 1.673566482940495 -2 2 -1
516 2 17.33363026777844 0.562951580566949 2.0361609772736573 3 0 1
122 2 16.27992280462385 4.165857842203607 0.5353640443709375 1 3 2
549 2 14.175783104843944 4.1667226870425775 1.3665026069311448 1 -6 -1
218 2 16.563655156968593 0.21920358149092567 3.8934221827562308 -1 -1 2
515 2 17.634108315283882 0.611881795968581 0.45272643781972804 3 0 1
123 2 15.649710307715058 2.7855811855382338 0.4900822815727796 1 3 2
8 2 9.859771774629934 5.762867862486802 4.704787919523944 3 -1 -2
447 2 12.164029362758821 5.7262313787869505 3.9616135059059756 2 3 2
7 1 10.322523295680899 5.283211050919219 4.023478953454707 3 -1 -2
287 2 9.159063529032874 5.823414456771746 2.736456422982561 -1 2 3
445 1 13.035558828966971 6.177913263801716 3.8826738362866364 2 3 2
548 2 12.595948476000865 4.560584947140549 0.9633744683463177 1 -6 -1
276 2 13.304539663415133 7.3788184826334176 0.866716877206756 4 1 1
488 2 12.230564897189971 7.67212582237718 4.384953013950312 1 -3 3
274 1 12.376679582566641 7.482634087499471 0.6391895680267063 4 1 1
487 1 11.650781313858008 8.436631121785155 4.678802928642766 1 -3 3
391 1 16.632585624355485 4.85546117308635 3.7719992513938214 5 2 7
393 2 17.276286201737918 4.437875515497165 3.173995827974489 5 2 7
446 2 13.42389960166 5.884839219741418 3.026443194296448 2 3 2
189 2 15.401577717374034 7.041469879911058 0.3815397013624469 1 -1 -1
50 2 16.732734985302606 6.334164850912102 3.7158920597559333 0 -1 -3
49 1 16.680679208202374 7.359448798066709 3.6462531484049143 0 -1 -3
188 2 15.396823581855168 7.266557275695042 1.9330738059117152 1 -1 -1
187 1 14.947937544938856 7.488307269053541 1.0971172150155766 1 -1 -1
51 2 17.520656310635715 7.719961044562151 3.23118120400666 0 -1 -3
459 2 9.141299651987671 11.252224515377295 2.315838930055922 0 -4 -1
398 2 11.906902760791713 8.867104640542289 1.7294830578276605 0 -2 -3
397 1 11.695497181027742 9.698844642152554 2.155277595829401 0 -2 -3
399 2 11.437754025410833 9.410793298946707 3.037019023797796 0 -2 -3
266 2 11.387334922587042 11.371359989807829 2.2823321170206605 4 0 1
265 1 11.025188039858842 12.287971815366477 2.4558066000410173 4 0 1
267 2 10.681941728498929 12.255643796140813 3.3540342636995732 4 0 1
519 2 14.02996162053547 11.909667255951327 1.0790299484538384 -4 5 0
518 2 13.901506440790778 10.41422834803217 1.4851408060592841 -4 5 0
517 1 14.442304761107774 11.175901527103543 1.53616016913049 -4 5 0
163 1 16.998785843475506 10.941124657818854 1.7308071728007248 0 -3 3
164 2 16.019051458973863 10.800924776447015 1.8034882897767037 0 -3 3
327 2 14.208209707581897 11.873541379145852 3.3501497750148173 2 3 -2
201 2 16.946038536006196 12.759086440664067 1.5588885583894596 -2 -3 -3
325 1 14.04032053798467 12.024450604193856 4.3303199669216825 2 3 -2
326 2 13.52151275431076 12.890965955265754 4.363954902902418 2 3 -2
165 2 17.416948220372696 10.783905444366857 2.6140735120943384 0 -3 3
315 2 17.507536442836553 11.694728725205946 4.533274089932368 -3 1 2
569 2 9.059871328579701 14.267024444510811 1.1323188261257804 2 -4 4
296 2 10.935449191216836 13.904352700598796 1.7944789640577283 0 -4 1
297 2 11.443998419089867 15.110221511184509 1.0664875479348102 0 -4 1
295 1 10.706461345165593 14.809800312055815 1.5377622421089054 0 -4 1
363 2 10.075902328231445 15.897530889869989 3.1128613937099985 -1 -1 1
362 2 10.175987651514204 17.411771627980904 2.7838946226324373 -1 -1 1
361 1 9.869193088695956 16.80168559814507 3.4777427705861665 -1 -1 1
349 1 12.938460260692832 17.413557725122036 4.364317403702679 -2 1 -1
351 2 12.049056712539432 17.198077895418304 4.6792119513533414 -2 1 -1
560 2 13.08464522106626 15.310512520711498 2.8256045247415646 1 0 -6
70 1 12.814904573457335 14.12436743138453 4.576194214524259 0 1 3
561 2 13.83723219305722 16.421415392169344 1.9946950246076731 1 0 -6
431 2 13.554741925165484 14.500319856510536 0.5685012562537985 1 4 5
559 1 13.38658407670897 15.548513436788546 1.905645270043847 1 0 -6
386 2 16.507128446954425 14.934412122982588 2.934048082640479 0 -6 0
385 1 16.627395630665323 15.406213406814755 3.819705180072713 0 -6 0
387 2 16.668845365115537 14.7423955881873 4.502841636701485 0 -6 0
199 1 16.991395103743802 13.754330167791275 1.385744111492083 -2 -3 -3
200 2 16.63210701200853 13.780238450302502 0.5056936441678216 -2 -3 -3
245 2 11.666196516407268 3.0264655915260934 5.392513826830722 3 0 -1
244 1 11.446338865627101 3.0708139967086674 6.350154581904183 3 0 -1
246 2 12.303817866813365 3.3567678783847197 6.7981031614661465 3 0 -1
264 2 11.452431022325545 1.257645438882302 7.076651048390795 -1 2 0
262 1 11.142493739654292 0.3897498367284295 7.304463218649875 -1 2 0
365 2 9.921126140089314 3.8681932325788346 6.930081452140774 -1 1 1
263 2 10.331691884338246 0.23531767432103093 6.698093605771668 -1 2 0
300 2 9.103593130750358 4.384627968818414 8.94742591185075 2 2 -4
68 2 10.156606471971298 1.028114946287031 8.77903767434434 2 -2 -4
545 2 17.48465827855513 1.5379242896767973 8.691091393939315 0 -1 6
382 1 14.81686756111573 3.111823592059797 4.902736763765773 -1 2 1
79 1 17.023844009911787 1.3280859514329257 6.90455146244481 0 4 1
57 2 15.481594951333753 0.36046295323314065 6.514625900511899 1 1 -6
48 2 14.56157250288335 3.3424834876574723 6.590652579504945 1 1 0
47 2 14.542898904518742 3.494489645534874 8.195631823018845 1 1 0
46 1 14.104979809542016 3.735370150123854 7.370828845806664 1 1 0
81 2 17.446118378517223 2.1016344501986888 6.412945595031676 0 4 1
19 1 9.37942026375752 8.72928114782908 8.573183065147543 4 1 0
197 2 12.203968453196826 8.195440482831785 8.691868941271903 2 -1 1
364 1 9.273139093125033 4.518918530355103 7.244756266157132 -1 1 1
198 2 12.631617007830442 6.92946611993697 7.831282343505839 2 -1 1
21 2 10.027919867259564 8.12288874818798 8.151750825255546 4 1 0
366 2 9.534199639461129 5.409176677608474 7.033949002132138 -1 1 1
566 2 10.486847370867817 7.577034386396982 5.750716912203467 2 2 -3
196 1 11.923795326978945 7.32074904078702 8.353071041499385 2 -1 1
565 1 9.649564891450037 7.121149755415669 6.030865331445219 2 2 -3
443 2 13.582974803746758 5.97583206126231 5.54967439240877 -4 -3 6
442 1 13.73664547809703 6.2078401586191685 6.489112020303959 -4 -3 6
203 2 17.15966448964905 8.282686975864399 5.154132792000339 -2 3 -2
444 2 14.050180316048603 5.322346500776026 6.797243169933517 -4 -3 6
308 2 14.669949358476943 7.658240530642673 6.572308890657998 -2 -2 -4
307 1 14.72706415535132 8.603746842437308 6.880798495710564 -2 -2 -4
225 2 10.646662774243389 11.932362609093625 8.660137473846557 2 5 -3
489 2 12.176224416225612 8.944311726566072 5.307596849470315 1 -3 3
2 2 9.912883051727569 11.027541928305876 6.844735290429919 1 1 5
64 1 12.859409736538666 10.47624427769502 6.115169225415532 0 -5 6
3 2 11.52612654936673 11.165139852529443 6.724845789158093 1 1 5
1 1 10.660437265421919 11.572201121081086 7.021248235937259 1 1 5
65 2 13.139501713549738 10.943660743705712 5.263927132575886 0 -5 6
333 2 10.225810667550743 12.800285468343155 5.715019552176899 0 -2 -5
15 2 16.853269814255356 10.301729000263677 8.278356345685514 2 0 -1
491 2 14.182513285989659 11.39976251563321 9.03442915751065 -1 2 -2
202 1 17.344741393674862 8.935555358856842 5.867059484726432 -2 3 -2
309 2 15.58132035066447 8.836423727594779 6.516681478028224 -2 -2 -4
205 1 16.68142334808735 13.105090444769749 5.332306526621495 -3 3 2
66 2 13.639198845271919 9.97912376399328 6.419156838565925 0 -5 6
207 2 15.764618338035312 12.802012216959419 5.28970467313816 -3 3 2
13 1 15.994891258678159 10.457797308380192 8.728307290396451 2 0 -1
14 2 15.543819645764575 9.64923247296736 8.515413334197312 2 0 -1
204 2 17.543794791178275 9.756857540256105 5.325964461352221 -2 3 -2
102 2 9.453404500252738 16.89409583391553 4.883287786898199 -4 -4 3
134 2 9.823791481685364 15.0724768042891 8.71782787122375 3 -2 1
11 2 13.09201154085089 15.351309079941139 8.168677616034863 0 -1 0
72 2 11.883290926218653 13.856984683935575 4.747521436944243 0 1 3
10 1 13.026705539830544 16.198490419704648 8.662130461986072 0 -1 0
331 1 10.30865488233975 13.237181358354041 4.88782883913755 0 -2 -5
332 2 9.505118753861446 13.774143149180105 4.757984238748815 0 -2 -5
12 2 12.364241554676235 16.773017103838164 8.208590283310002 0 -1 0
100 1 9.095783894123521 17.15065151152092 5.791727199300734 -4 -4 3
135 2 11.296001764931873 15.509318003387033 9.074169940837097 3 -2 1
350 2 13.60745199634651 17.365934680778402 5.136783218678447 -2 1 -1
56 2 14.37039834533327 16.83451676753432 6.9534177721206305 1 0 -6