LAMMPS data file via write_data, version 8 Apr 2021, timestep = 500000

384 atoms
2 atom types

0.10583024808600701 14.964267751913637 xlo xhi
0.01584985878885094 14.154383141211847 ylo yhi
0.07274623281686031 13.632976767182916 zlo zhi
5.0416002395348665 5.0233762159077315 3.5164478284055973 xy xz yz

Masses

1 16
2 2

Atoms # atomic

1 1 7.700498978008023 5.29510724418516 4.190337157617584 0 0 0
2 2 7.223168146758228 6.196283893617251 4.2371566428683085 0 0 0
3 2 7.028790952346324 4.854700768872242 3.645696029033193 0 0 0
4 1 10.035679229483728 7.219495536109737 10.691774859425836 0 0 0
5 2 9.594049845466524 8.126549661524445 10.912141390373314 0 0 0
6 2 10.425733352510964 6.969138091837994 11.550804418909438 0 0 0
7 1 9.641648971483123 12.249794568580686 3.989098499565239 0 0 0
8 2 10.00848373384119 11.972273559202401 4.83770936123902 0 0 0
9 2 9.40959636156827 13.185916238774373 4.204873016388628 0 0 0
10 1 12.554302239030376 14.052106007763008 11.101590708904531 0 0 0
11 2 13.225553396261146 14.23963812110327 10.374143101794234 0 0 0
12 2 11.778327329750867 13.542521930163675 10.682809017855096 0 0 0
25 1 11.520323368309397 8.319627298597727 6.1619226526076885 0 0 0
173 2 11.941660175618093 5.8286238308730205 12.402634711770526 0 0 0
27 2 11.129023964361583 7.64449101131311 6.708671296865577 0 0 0
28 1 14.124914011528992 9.81689070726897 12.97057101791962 0 0 0
29 2 13.259109911377896 10.323216409447047 12.859383348970729 0 0 0
368 2 3.985327433586645 1.4466379104177438 4.795891901039449 0 1 0
31 1 13.962804557108953 15.205105146305243 6.389164220192854 0 0 0
344 2 5.911861199006343 13.254982978014503 3.8631979370508205 0 0 0
33 2 8.21476941034807 1.7049917440449187 6.049877325141232 0 1 0
34 1 16.501419853105244 16.930510529343078 13.031770122057823 0 0 0
131 2 7.533277714364644 11.546124263960676 10.554188309705163 0 0 0
367 1 9.459639367875722 14.855047412675393 5.227774642668904 0 0 0
49 1 5.3763479478788 3.7293732653107448 2.705537839666068 0 0 0
50 2 5.580689781496386 2.8194869387624117 2.4343719943080546 0 0 0
51 2 5.173404657139318 4.22469248882289 1.8838235099127312 0 0 0
52 1 8.01893775541256 5.622222584006707 9.365391760449304 0 0 0
53 2 7.22663319569385 5.342145518382095 9.929625632382063 0 0 0
54 2 8.619544123722806 6.055251587417816 9.957480610110204 0 0 0
55 1 7.739034616827975 10.603929751302303 2.892714127243276 0 0 0
56 2 8.020906482753716 9.673369029340696 2.8040211645305297 0 0 0
57 2 8.56789231778431 11.074953438397596 3.1883529289080967 0 0 0
58 1 10.334611419999165 12.477599982812361 9.762128845323367 0 0 0
59 2 9.881376086208757 12.701363329540552 8.9533486670575 0 0 0
60 2 10.586281792656841 11.568832518866552 9.564011779720385 0 0 0
348 2 8.873023004058226 15.187000370078188 10.77429715851269 0 0 0
74 2 6.854974230816457 14.284425156600955 0.8698749691068383 0 -1 0
372 2 12.881459731582362 17.160991431676916 12.062478298745043 0 0 0
76 1 3.831879605077536 2.5812152754242015 7.44488822591942 0 0 0
270 2 12.874101558586108 7.799898058089378 9.917690414606392 0 0 0
78 2 4.535333951782959 2.0701030096172763 7.939016034158857 0 0 0
79 1 3.520588602409647 7.888343132724501 0.9334101205244649 0 0 0
80 2 4.189915648941138 7.228689050684639 1.1432647355061172 0 0 0
26 2 12.233556570463975 8.728589625129171 6.666842838464462 0 0 0
82 1 6.048107231141395 9.563080006766048 7.439362437980619 0 0 0
370 1 12.014160212032031 16.67621206691676 12.017527943494306 0 0 0
84 2 5.398657285587347 8.903536930955207 7.279866101658356 0 0 0
97 1 5.481130790641835 4.31585279797793 6.299570292310756 0 0 0
98 2 5.17497656885936 4.684610930010328 5.481122455794107 0 0 0
99 2 4.791294361620953 3.6082252196151208 6.6392136365232775 0 0 0
100 1 7.787173666930864 6.158164515776025 12.63679783777593 0 0 0
101 2 8.214494326141438 6.775226309931501 13.263797081701455 0 0 0
102 2 7.187668925803973 5.552193111336018 13.117809710494726 0 0 0
103 1 7.789057297534998 11.34995543165326 6.114734955611405 0 0 0
104 2 7.083084837494616 10.739202907561408 6.490100189626975 0 0 0
105 2 7.421210565676047 11.773512147795842 5.351824677310497 0 0 0
106 1 10.340682861729315 12.91846180555151 12.773836213951661 0 0 0
107 2 10.695249392319571 13.536246180163419 13.43277630441181 0 0 0
108 2 9.52937314053108 12.467629299099391 13.145433314729125 0 0 0
121 1 3.0274583370461494 2.853784997166768 4.044489298679862 0 0 0
122 2 3.8367615723196393 3.330516315266187 3.5972745818849274 0 0 0
371 2 12.12268546489924 15.881241165399933 11.435838482465114 0 0 0
124 1 5.644063523698008 4.753233620108582 10.977025214482605 0 0 0
288 2 7.941931613585832 14.490614128943275 8.817694530833494 1 0 0
126 2 5.974658637410039 3.8865166181511372 11.47646070116502 0 0 0
127 1 5.286124365971258 9.962412490886617 4.441673994130251 0 0 0
128 2 5.836113560008911 9.121724277677245 4.435050501216725 0 0 0
129 2 5.94710796717798 10.516754790218434 4.050828995228425 0 0 0
130 1 8.180102835161101 11.937296154707862 11.196835509507057 0 0 0
77 2 3.1440374989309814 2.0352201541571144 7.044660627708321 0 0 0
132 2 8.997188092499938 12.24609610252437 10.771141915471832 0 0 0
145 1 6.895230174462108 1.9814051923944727 5.0721511264326375 0 0 0
146 2 6.360365670996369 2.773203239443018 5.200424969651251 0 0 0
147 2 7.094222158649849 1.9229494417423967 4.047721349998142 0 0 0
148 1 9.259962688893934 3.841270323399488 11.806256721311842 0 0 0
149 2 9.19058782915664 4.675550141377016 12.275871633234871 0 0 0
150 2 9.977446459482458 3.4297722167630296 12.358962110674517 0 0 0
151 1 9.26724062838865 9.145417960442261 4.965241050763642 0 0 0
152 2 8.773753694934271 9.884550708927792 5.279054698795796 0 0 0
153 2 9.976497068993135 9.01674550862948 5.636096610693171 0 0 0
154 1 11.878768365506465 10.975045227160507 12.030775226885725 0 0 0
155 2 11.237921640671704 11.655046351334525 12.326399966224978 0 0 0
156 2 12.231001776149359 11.267724115292177 11.140167189997797 0 0 0
169 1 9.057140539153949 4.192632470732018 6.215858511190765 0 0 0
170 2 8.484722766334054 4.773161712993321 5.609729015541406 0 0 0
171 2 8.458257081053901 3.70112442661311 6.856416559702377 0 0 0
172 1 11.349731909842996 6.305726059054189 12.982453733896184 0 0 0
194 2 8.249161656854165 1.8521767789565937 1.9077451250083752 0 0 0
174 2 11.815710317394432 7.138991139496122 13.275786773302391 0 0 0
175 1 11.31537021272291 11.4443831648991 6.1056480572902885 0 0 0
176 2 11.080876468611054 10.870422219430209 6.844451903176878 0 0 0
177 2 11.997284539253048 11.007026077761553 5.62441937723941 0 0 0
178 1 14.052103007877651 12.941957849092203 13.029547178232797 0 0 0
179 2 13.253147516413867 13.195218896426283 12.487136385210547 0 0 0
180 2 14.738080454229792 12.609026336835022 12.44774001607214 0 0 0
193 1 8.14884620364055 2.452815143735348 2.7371546442197894 0 0 0
35 2 17.265279683877605 17.465176267896734 13.356671500827323 0 0 0
195 2 8.025210609826193 3.40768309628841 2.403236333182673 0 0 0
196 1 10.809637895201377 4.301988826141117 9.458103070139964 0 0 0
197 2 10.227911311427919 4.4922318999367405 10.214344666269458 0 0 0
198 2 10.629390985429447 5.057565892188819 8.918694347174894 0 0 0
199 1 10.809253403825391 9.587133478444906 2.668639852664115 0 0 0
200 2 10.368433211682808 10.248682925190149 2.0706547006961107 0 0 0
201 2 10.09383064707038 9.205741074306305 3.269214752780475 0 0 0
202 1 13.42173767103598 11.440512727844894 9.58483309020122 0 0 0
203 2 13.259918842508094 12.281696895731317 9.105265198870306 0 0 0
75 2 1.0343641320026806 1.4752083215221496 1.013260256147958 0 0 0
217 1 5.378584011185919 1.2172721277592689 1.7192700967622194 0 0 0
218 2 11.008567249971088 14.577595999924963 1.915346683325905 0 -1 0
219 2 5.737574963342927 1.5620656010747105 0.8793833378905324 0 0 0
220 1 8.040020035381023 3.0561414146191486 8.424147600098095 0 0 0
221 2 8.22297951727005 3.8149272002176136 9.00338945804293 0 0 0
222 2 7.113917903978386 2.732022450792086 8.544158490236052 0 0 0
223 1 8.360806870389634 7.9655510120979836 1.9593156731528742 0 0 0
224 2 9.063119986481208 7.308142583494729 2.058597623782364 0 0 0
225 2 8.514909743944887 8.353450790862212 1.093984835649436 0 0 0
226 1 10.428926928708066 10.201836265461576 8.608179737696421 0 0 0
227 2 11.150411823918754 9.646251169309155 8.820910174679582 0 0 0
228 2 9.590838142085406 9.615588256735936 8.728052991461158 0 0 0
241 1 7.594130281082831 4.723669698313079 0.8241358517222427 0 0 0
242 2 8.313091510955632 5.332601280652958 0.4412590911513801 0 0 0
243 2 6.937622948043836 5.375527538581964 1.24201286516797 0 0 0
244 1 10.130922183899418 6.271582400427742 7.708887164574639 0 0 0
245 2 9.450388711091906 6.762804329197443 8.22050373154277 0 0 0
246 2 9.664047237874266 5.476187982778034 7.2544755288613505 0 0 0
247 1 9.690019831870162 11.716837936563536 0.6152839803893214 0 0 0
248 2 10.506190085526914 12.047191491737046 0.25315494453797455 0 0 0
249 2 9.44119992509316 10.977823786333037 0.07828179146293936 0 0 0
250 1 12.500320802112993 13.407619004744516 7.559334774509007 0 0 0
251 2 13.141721245984591 13.953582131375772 7.099536619253556 0 0 0
252 2 11.966967641478249 12.772033409519478 6.980346376413778 0 0 0
265 1 9.866583176246465 5.794373862385188 2.7162596520670723 0 0 0
123 2 2.7578523576840217 3.3516897787301714 4.803605084273348 0 0 0
267 2 9.076289152858996 5.704293883828992 3.3001648296297366 0 0 0
268 1 12.183304752177886 7.883223483489966 9.198645805958616 0 0 0
269 2 11.39726821935023 7.559928159046298 9.717816101225466 0 0 0
73 1 1.1897526038872022 0.7223772434979777 0.336042847610912 0 0 0
271 1 11.95968453697311 13.119324052643437 2.4214029441788685 0 0 0
272 2 11.30652572272172 12.616208514917481 2.9429987707597274 0 0 0
339 2 3.5967877475946484 5.7443491743065875 3.6473006298804913 0 0 0
274 1 14.622366771212102 14.923737658671037 9.498133991925783 0 0 0
275 2 14.14367116716609 15.648437425335741 8.996716165320736 0 0 0
369 2 10.33053866204169 15.26653822763393 5.535803910914107 0 0 0
289 1 5.872903700663653 6.747128253465227 2.0714507817220986 0 0 0
290 2 6.651580704987322 7.29369683604601 2.242957514229246 0 0 0
291 2 5.419715093852539 6.59077804439953 2.9656426425696485 0 0 0
292 1 8.277544697524835 8.637195024598997 8.736310598213889 0 0 0
293 2 7.599497526480952 8.98645086007873 8.134043241130879 0 0 0
294 2 7.6698276414090785 8.464329104184179 9.511145121863832 0 0 0
295 1 8.244641180461235 13.66193889247743 1.9958390707260116 0 0 0
296 2 8.864123852509824 13.055258304075801 1.6299192088960697 0 0 0
297 2 8.861871435552535 14.418157237079336 1.9689939044948346 0 0 0
298 1 10.757768757679793 15.64275400297408 8.861975443825303 0 0 0
299 2 10.475399343901813 15.354552228950766 9.767999104381442 0 0 0
300 2 11.093649030771363 14.821940927746018 8.411820187994582 0 0 0
313 1 3.9689462110213 4.5211294938954 0.4514507768571128 0 0 0
314 2 9.046294975542871 8.595487405665944 13.238854034552839 0 0 -1
315 2 3.289465628919373 4.923268486870682 0.9956376915962475 0 0 0
316 1 6.309694745222547 6.553298384052668 7.352781038552089 0 0 0
317 2 6.196907561059439 5.625337312331559 7.024656474766115 0 0 0
318 2 7.177423088379122 6.568044455028274 7.846379637990347 0 0 0
319 1 6.2581885847767 11.382722615647651 0.688141888344822 0 0 0
320 2 6.940234054204512 11.176734558903666 1.3861153662525385 0 0 0
321 2 11.719096740042026 15.423836498780208 13.53574666307824 0 0 -1
322 1 8.751071639467748 13.324642127423582 7.527278172397496 0 0 0
323 2 8.913321814421003 13.887941861146404 6.763868784399772 0 0 0
324 2 8.187647621973753 12.661608585704334 7.163803830631717 0 0 0
337 1 4.39893786831983 6.004661554203674 4.155331904099724 0 0 0
365 2 10.433137268508943 9.982593869501 11.716217822120484 0 0 0
364 1 9.494019980777283 9.638663668483566 11.78754521873197 0 0 0
340 1 6.745799817786212 7.934002749951997 10.990639546490865 0 0 0
366 2 8.964254266935646 10.40709345869156 11.450165389666402 0 0 0
342 2 7.056004771756708 7.270350949769198 11.57835373147321 0 0 0
343 1 6.706881166489289 13.46336819563142 4.346160177149445 0 0 0
338 2 4.1673671574353595 6.77710142876665 4.745159952799046 0 0 0
345 2 7.384454412619741 13.618341009390125 3.6521662273877595 0 0 0
346 1 9.706604455239889 15.305505583549978 11.316936001014676 0 0 0
347 2 9.788417711907115 14.506363339891486 11.841936895655145 0 0 0
363 2 7.716136695643264 8.182094656196005 4.907328750932218 0 0 0
361 1 6.882636453692823 7.723605571494043 4.66321691942093 0 0 0
362 2 6.444315439454171 7.4525406297630274 5.495648065217555 0 0 0
273 2 12.643472904077601 13.386708543028686 3.0617854004635063 0 0 0
32 2 14.678980224312646 15.809256462386394 6.77227920207904 0 0 0
204 2 13.41153327261491 10.887367596901324 8.785400513196574 0 0 0
125 2 4.919203289309724 4.592599263674656 10.364951386045002 0 0 0
341 2 6.776933003142414 8.751705578997461 11.510132217340297 0 0 0
30 2 14.819496496366876 10.381988909051566 13.293963588988344 0 0 0
45 2 6.887120866265893 14.533344645394227 5.646022997574871 1 0 0
134 2 10.033297082809844 3.403702235354248 4.950822826042528 0 0 0
276 2 15.02847938802131 14.447434016042209 8.791088543301644 0 0 0
13 1 14.830193471775306 5.118240772367137 4.01274644569756 0 0 0
14 2 13.998439019371906 4.62931883735384 3.7991414769912084 0 0 0
15 2 15.210509569987492 4.491439875509608 4.648134000268815 0 0 0
16 1 17.232731624146748 7.056230596971206 10.812704198489914 0 0 0
17 2 16.49052429231693 6.632992125813771 10.414121853586428 0 0 0
18 2 17.984846398774 6.998362186021439 10.175860190674284 0 0 0
19 1 17.23689369864729 12.261289314474771 4.3626238722834 0 0 0
20 2 17.876710497391503 12.513878792126665 3.6767079074928013 0 0 0
21 2 16.517422499318574 11.768742579986045 3.858087944134597 0 0 0
22 1 19.827882826168096 14.04115350281159 10.672622526679374 0 0 0
23 2 20.616404800108512 14.25073154249337 10.2408641230741 0 0 0
24 2 20.23113674237746 13.812494604268757 11.56261382281695 0 0 0
138 2 12.277266605259907 4.347968820437794 10.551484333029642 0 0 0
38 2 18.20448267246758 8.277211473317584 5.75923042580775 0 0 0
39 2 18.850787001767 7.34282996750054 6.82762982558939 0 0 0
40 1 21.520782667722475 9.864695231175741 12.843670503993627 0 0 0
281 2 20.27890553933461 7.7916738157223815 10.02260964942869 0 0 0
42 2 20.754391713701832 10.392108077813731 12.492576544288907 0 0 0
43 1 21.398126117487816 15.182107862235647 6.3159606475789305 0 0 0
44 2 20.649902866889644 15.618669730920608 5.884238383489598 0 0 0
384 2 19.404014293934463 15.687250898540103 11.351161957741306 0 0 0
46 1 23.78057789800966 16.979680108449948 13.183386591729128 0 0 0
89 2 10.994149333017853 3.019714382889203 8.36979621222482 0 0 0
378 2 16.397282757347813 10.066716562064547 11.953592569183067 0 0 0
61 1 12.726502639026029 3.7262790531845034 2.9017924224696237 0 0 0
62 2 11.9508013524728 3.5197225022034506 3.4714195538470616 0 0 0
63 2 12.394612551212077 4.004226208278027 2.051667206575683 0 0 0
64 1 15.23725853039861 5.3670060922179115 9.603551450896886 0 0 0
65 2 15.05096462668611 5.797717071688629 8.742618326835645 0 0 0
66 2 14.41813436291945 5.219674939254742 10.122900524886596 0 0 0
67 1 15.105781892245085 10.724117839176323 2.7502822197031804 0 0 0
68 2 15.470001389473737 9.79416145995179 2.56126987849622 0 0 0
69 2 14.264542065740308 10.575900754803406 3.2971974335403837 0 0 0
70 1 17.54812958080512 12.383005045349035 9.464534424611616 0 0 0
71 2 18.3018089816333 12.682369911437167 10.009196304403163 0 0 0
72 2 17.659574126126444 11.419523976499192 9.423972140853174 0 0 0
266 2 10.642982786474196 5.996999623734168 3.2968742872341106 0 0 0
86 2 14.089270844461197 14.35459973750958 0.9747228966780339 0 -1 0
87 2 13.955057664592129 4.8979698821876685 13.507977740512569 0 0 -1
88 1 11.282627166220273 2.7002919598398205 7.529547309507314 0 0 0
37 1 19.080672836334287 7.991457148890311 6.149765612115268 0 0 0
90 2 12.096157343138026 2.189298768250097 7.746527740440602 0 0 0
91 1 11.259199701743189 7.635373642698166 0.6186157697056615 0 0 0
92 2 12.100845717163429 7.437294386540284 1.096877166457699 0 0 0
383 2 19.31561452835386 16.01178766636253 12.882580600914205 0 0 0
94 1 13.553420619663276 9.627328163793457 7.403776518954527 0 0 0
95 2 14.131265983031886 9.1684100572693 8.006550865617955 0 0 0
96 2 14.136155393307439 10.171008551284531 6.802533502215256 0 0 0
109 1 12.736940876356506 4.2620181219653075 5.969622205843648 0 0 0
110 2 12.2728687874264 3.6249229050642047 6.54870499924734 0 0 0
111 2 13.503533571268816 3.698195841504387 5.732900869469079 0 0 0
112 1 15.016847911063687 6.118593680584137 12.679829813311084 0 0 0
113 2 15.584799998840484 5.364702664288102 12.499671670722135 0 0 0
114 2 15.434756795361684 6.573235021567559 13.412201410640732 0 0 0
115 1 15.164555874761277 11.170708064934061 6.140041948618202 0 0 0
116 2 14.868588875898942 11.691265172926363 5.346251502084955 0 0 0
117 2 15.448309814309772 11.819872259393911 6.771737219147033 0 0 0
118 1 17.621781569418044 13.229135019782824 12.506610128003686 0 0 0
119 2 18.0272988063115 13.718311858180021 13.222262308301769 0 0 0
120 2 17.03374935689852 12.561808740606017 12.881125981721834 0 0 0
133 1 10.501820958848482 2.8247166612186567 4.322935079285515 0 0 0
375 2 14.335572059118958 7.4520629364350865 6.141891769336994 0 0 0
377 2 17.17770179011081 8.669116979071648 11.528816827273932 0 0 0
136 1 13.045374747523992 4.709024120225239 11.067354657195224 0 0 0
137 2 13.525541943079242 3.8842516307331914 11.400937970790928 0 0 0
41 2 22.150583579215745 10.483729636314852 13.22889207518503 0 0 0
139 1 13.07005472355041 9.850735037872573 4.183981411170404 0 0 0
140 2 13.513229114291931 9.130026474611832 4.698718415324157 0 0 0
379 1 17.10376491652208 15.034162746061513 5.459798843760379 0 0 0
142 1 15.606064117770293 11.689408596981457 11.269642558106254 0 0 0
143 2 16.390917800059277 12.021238677238347 10.794184133030466 0 0 0
85 1 8.388523268899021 0.8412587485264956 0.5630489354222716 0 0 0
157 1 14.311465936846458 2.1862684455189147 5.179588722818647 0 0 0
158 2 13.551651736411081 1.6067777076068017 5.269307236882743 0 0 0
159 2 14.563309252008453 2.1084361580235633 4.217727669978049 0 0 0
160 1 16.426168693284215 3.96513527920306 12.05877414566099 0 0 0
161 2 15.817088374174883 3.1493363670570624 12.047332785611191 0 0 0
162 2 17.161050598857827 3.6949969772293065 12.556700657740274 0 0 0
163 1 16.86561351118977 9.110337878649407 5.150519501920664 0 0 0
164 2 16.170357221705267 8.518898634262257 4.945913598268358 0 0 0
165 2 16.451263568115753 9.900235492810646 5.48009273148452 0 0 0
166 1 19.37965143735075 10.76425402253265 11.606192815493364 0 0 0
167 2 18.5674740049892 10.21345644274699 11.750681402596825 0 0 0
168 2 19.058841206462727 11.725461991610766 11.735241259529138 0 0 0
181 1 16.21330155399605 4.336421485891487 6.106866875837922 0 0 0
182 2 16.026923704331235 3.735298338584081 6.841640107582133 0 0 0
183 2 16.606843762895526 5.170190621986578 6.481513719926129 0 0 0
184 1 18.901664127281688 5.954859932343235 13.00806691643263 0 0 0
185 2 19.382935457552865 5.318299524613336 12.467135115653482 0 0 0
186 2 18.164834184958945 6.242731464070919 12.396475678428304 0 0 0
187 1 18.77610206688864 11.367614654544232 6.582719223310624 0 0 0
188 2 19.28203945541916 10.802599985696336 5.936758980962205 0 0 0
189 2 18.056040072126738 11.805874463553618 6.122745086011312 0 0 0
190 1 21.106744195425005 13.086901959436643 12.731290940892805 0 0 0
191 2 21.994313665911662 12.838034010630857 12.368426236431981 0 0 0
192 2 21.388317726750103 13.933740827021538 13.187789241861807 0 0 0
205 1 15.716360003037394 2.4849061247597164 2.3564806884214238 0 0 0
81 2 18.3658296742516 8.560774420441131 1.6538383984571172 -1 0 0
207 2 15.49728690374501 3.3243155858201034 1.9701671213317595 0 0 0
208 1 18.225231267861048 4.412728130479024 9.371635604713482 0 0 0
135 2 9.818348556092566 2.685860810132948 3.659093836871458 0 0 0
210 2 17.393883753640015 4.282794098098121 9.866197172358147 0 0 0
211 1 18.20274566002577 9.921338687229108 2.5961696049637153 0 0 0
36 2 16.865862167736076 16.44831927699774 12.246808649995371 0 0 0
213 2 17.547035779702714 9.580188055783179 3.198933904328996 0 0 0
214 1 20.968491340530818 11.004204781553463 9.619150879955313 0 0 0
215 2 20.384596192039563 10.844797248437166 10.363806042294016 0 0 0
216 2 20.599231665842684 11.790476247792688 9.197565672771573 0 0 0
229 1 12.949810833445646 1.0390759810408559 1.9460894182986008 0 0 0
230 2 12.958471563882874 1.7047830522945677 2.6188765512480745 0 0 0
231 2 13.289728813720316 1.490266547471915 1.1428326597758671 0 0 0
232 1 15.821257420379087 3.0195683669141626 8.564767105646148 0 0 0
233 2 15.538253720517348 3.8886224212416862 8.916598004402939 0 0 0
234 2 14.985075234017765 2.475131270196614 8.504798704919066 0 0 0
235 1 15.844923276361307 8.078130044994161 2.019058508089145 0 0 0
236 2 15.937321578705214 8.19334536946299 1.0703305903623024 0 0 0
237 2 14.92582571309631 7.840048614177959 2.1782116355267376 0 0 0
238 1 17.96966973935118 9.822255385061604 8.598517553817596 0 0 0
239 2 18.667709703884764 9.225906284258672 8.678144424039631 0 0 0
240 2 18.132939259709605 10.402295537683411 7.797369344424018 0 0 0
253 1 14.768230583028789 4.705765226231989 0.8928827259970529 0 0 0
254 2 15.360327573162165 5.126295215354453 0.26212574623616924 0 0 0
255 2 14.457484746965726 3.9557899372020175 0.380225602127053 0 0 0
256 1 17.35143672342783 6.178068693525465 7.556997053619067 0 0 0
257 2 16.780997176816477 6.842466605452292 7.983757504924163 0 0 0
258 2 17.69035216811699 5.504943573021921 8.16678721364183 0 0 0
259 1 17.11932470899999 11.59397162665742 0.6952274165835803 0 0 0
260 2 17.757783131157986 12.338262292072363 0.4161349878234796 0 0 0
261 2 17.544034157726607 11.154881561754888 1.4720013086381747 0 0 0
262 1 20.273331701215064 13.28029714540717 7.820939875649007 0 0 0
263 2 20.5762835091143 14.041570352665463 7.276644962991425 0 0 0
264 2 19.65784508121833 12.731248968381244 7.255273898709038 0 0 0
277 1 17.156828898149115 5.838547729777342 2.6169709700834973 0 0 0
278 2 16.293643548514645 5.678709396051752 3.0115991914364297 0 0 0
279 2 17.045535563021474 6.791413966127557 2.541729425485347 0 0 0
280 1 19.502171692334457 7.741019098841383 9.435373449800537 0 0 0
141 2 12.358329909301617 9.460760767191243 3.6642605779344746 0 0 0
380 2 11.447305206746906 1.5445485093991418 5.050536100479844 0 1 0
283 1 19.546208448231795 13.139641306845112 2.655094835870928 0 0 0
284 2 19.17190456686977 13.991720139566695 2.2863469519348874 0 0 0
382 1 19.507386357586334 16.418438227511306 12.015666663342504 0 0 0
286 1 22.424670122363235 15.001126458552152 9.529065741716364 0 0 0
287 2 21.952679492337374 15.714524834982035 9.055158097521938 0 0 0
381 2 17.035465998708947 14.164895606443636 4.925373251060129 0 0 0
301 1 13.345444415552478 6.88342068155746 2.097546647531659 0 0 0
302 2 13.691350692716231 6.060839895667938 1.5912340481693417 0 0 0
303 2 13.000633282351922 6.601003284143538 2.9459853744907476 0 0 0
304 1 15.727856159885135 8.33146114061053 8.724868616813776 0 0 0
305 2 15.459971551546186 8.144592770171963 9.598178507968402 0 0 0
306 2 16.478547590864416 8.9118960990774 8.743427149245116 0 0 0
307 1 15.587410838739723 13.745177549312684 1.8671529518266805 0 0 0
308 2 16.45418126520846 14.268856868917487 1.8376801227738748 0 0 0
309 2 15.87357327461962 12.922706559656184 1.4252481769308045 0 0 0
310 1 18.51791938431316 15.466447764817033 8.571102249771586 0 0 0
311 2 19.115874060485275 14.671889549084495 8.403845695888384 0 0 0
312 2 18.1038726585291 15.341534179906072 9.46028489885221 0 0 0
325 1 11.309221551449916 4.35539373164403 0.7397725410373852 0 0 0
326 2 10.712800022532088 4.8003507181122185 1.382767319605801 0 0 0
327 2 16.58207464674285 8.486871325549362 13.54833973195252 0 0 -1
328 1 13.829791385962087 6.37349163450275 7.461367251738426 0 0 0
329 2 13.138338680101686 6.845627309371983 7.917224186859344 0 0 0
330 2 13.50187326566121 5.541868980874755 6.9734024773715975 0 0 0
331 1 13.60988418370554 11.532342794108398 0.6504188298635835 0 0 0
332 2 12.909926963145226 12.03041481921159 1.1105694897195877 0 0 0
333 2 14.21762729504418 11.21817915024718 1.3774828746487742 0 0 0
334 1 16.04696388052996 13.357481777897288 7.47613652764333 0 0 0
335 2 16.68515306705721 13.060165060117045 8.1148484878662 0 0 0
336 2 16.3968857059983 14.10200979369145 6.9734770932974195 0 0 0
349 1 11.905725009818752 6.313925839660733 4.450279643098973 0 0 0
212 2 18.983453119519456 9.86792853334297 3.1628832877338113 0 0 0
351 2 11.844103352871553 5.561260410860833 5.080223631099689 0 0 0
352 1 14.373752909344754 7.9852576228269845 11.046028800360771 0 0 0
350 2 11.93008803491037 7.13733410295011 5.083843347310299 0 0 0
354 2 14.564989848750201 7.254723349937939 11.629348337103602 0 0 0
355 1 14.129709830436022 13.051313915929192 4.126839981577059 0 0 0
376 1 17.151205311223116 9.424211433847075 12.16779304081086 0 0 0
357 2 14.870556734566653 13.30383318604356 3.4938922282733507 0 0 0
358 1 16.971214093663956 15.270562490754918 10.862418521611746 0 0 0
359 2 17.211728622700974 14.473137074207783 11.379767633356682 0 0 0
356 2 14.196579732879592 13.680591013742493 4.883126843419309 0 0 0
373 1 14.55753932898262 7.620884856265577 5.174384722170552 0 0 0
374 2 14.517934200726957 6.713398788134152 4.770606531456578 0 0 0
144 2 14.831837972737953 11.571502041221496 10.668238501445899 0 0 0
209 2 18.291794836654375 3.6475488535481806 8.7186533983541 0 0 0
353 2 14.21247682576052 8.75986980846307 11.57475518763873 0 0 0
93 2 10.816760122911846 8.252555608647095 1.23091928259564 0 0 0
48 2 24.64457340643942 17.35669414761021 13.459730354379417 0 0 0
360 2 16.05569401653581 15.128247363130976 10.651559519415656 0 0 0
285 2 19.767421625358626 12.537027712948788 1.9501060045216871 0 0 0
83 2 20.666121197795317 10.000541807001321 8.2784512693203 -1 0 0
282 2 19.945527968793 7.27089176663556 8.699340053851426 0 0 0
47 2 23.97296659664747 16.31834952295558 12.43826781486614 0 0 0
206 2 16.601821600018418 2.5861403641418477 2.743690129676349 0 0 0

Velocities

1 3.2181007051636343 2.373331994914255 -3.7243758965679987
2 2.11910506770317 14.128864972328163 -3.6962110714496235
3 -0.4320256182753882 -1.4788635845499054 -0.05710403334192437
4 2.0157193501907016 -1.7985985882781192 -3.953016240253572
5 4.158015770887965 5.376434252379729 -20.618086945612877
6 -3.995379545204391 5.3677561413980515 -6.3168577055785615
7 3.2826112207409963 1.441461126140609 2.4767982288517083
8 -2.230284970860381 12.40432800002828 -4.723853507834835
9 -4.407384092171023 -1.7708274500443595 10.498691273301247
10 0.9280154260501775 -4.889592286977849 2.548032525186876
11 -8.2320508270058 15.214408438446942 7.501318624696506
12 -5.316782686935497 -0.32778438936810306 -1.7780832816741032
25 2.4943459461098465 -1.2596613524706404 -1.0691160304928387
173 -27.55533777108018 12.733732918057598 -8.286759641691349
27 -2.032558921176083 15.282163393151437 7.826995587902596
28 -8.453046433582566 -1.2984847387744263 -0.6084423302692289
29 4.063679159299114 -0.9725781161646808 -7.555022959592047
368 -14.108463430405443 -10.557491324930199 -6.915192752281386
31 -1.9778998350298052 -1.7585644663538225 12.450678905181958
344 -0.5678452948969889 29.86417026594067 7.708600942131128
33 2.2083150945791723 14.138417541494231 5.312851569933835
34 2.3659553511695464 -5.744827288512492 -3.155128168645227
131 16.744371993567373 -9.27181663375737 -6.16977599604899
367 -3.439468883155034 -6.023242784453501 9.596995013648547
49 -0.3717582503790885 -2.2314076263893137 1.4378729333552156
50 -0.4360055145955867 -9.488891289004176 -8.155287286525454
51 6.550663476447878 3.507968865617516 5.079117143662886
52 -2.9370176412380995 3.7962705576620244 -5.685697553723187
53 -9.640582193014271 5.8792286286167315 -22.569174013189187
54 -5.531834211629472 -11.051849807448459 8.769771611951692
55 -1.5586989455804439 -2.130091205899575 -5.464163721506108
56 7.340703702051347 -4.923501977133033 -3.7090587366059227
57 -1.2402107258467656 25.46384179175002 -5.567096924517402
58 5.061495041854037 4.79050569209719 3.1145945343855956
59 1.9483955841542653 8.339556371740587 2.857132717249905
60 2.947493196771665 14.0361877424057 23.72670353399439
348 -8.01438256630425 1.73789275679821 -14.775001136817746
74 -3.270812819691201 0.4188681042514761 -26.200232945836134
372 -9.1671085886379 0.7539822743673127 -2.544886185350124
76 -4.338310012745433 4.480810337621803 -2.2444332488061964
270 -5.193211454036634 -8.91392834900265 -0.9850795645000996
78 6.0681974287392215 -10.723441761925047 2.4661906664507254
79 2.7778120274069966 2.8572475137703623 5.021069747661198
80 -12.672540866247191 -1.0656861352387736 -5.756751693037011
26 -3.999199220078842 -1.558878531735512 12.086580279712694
82 3.029431432119775 -4.158805207730996 4.092036046837151
370 -4.818663514090361 -3.774698431519788 -2.269349338423905
84 -0.8456274827240654 11.081172224186476 2.886072394534867
97 0.18146619832377853 3.3862169064989143 -2.7582299635872234
98 -8.187059501393781 -14.529905884063032 -7.297917399070914
99 -14.775874671487626 -3.34377742013225 -2.5584406774030217
100 2.7743854267201127 -2.1263227898868005 4.3422069731567765
101 7.532799954674968 -18.00557069422767 19.738647913563494
102 -1.9369285991710248 0.8144209207463178 -1.3011593919430884
103 -0.637454770548402 3.3020434712247533 -0.9374100969555013
104 -11.289286118527329 -10.145027379364304 1.4230002602577303
105 -12.415983414071162 10.911018453004864 -11.292737522100463
106 0.8678007012626544 -4.100556521688037 -4.047931510166798
107 12.209388454996796 -15.43124997865123 5.256710029320451
108 -2.751981030486886 3.0190989127294148 -2.138765498317551
121 -3.5090579880958273 2.488754362128889 2.179869152538405
122 14.94253386366338 -5.271050227884979 -4.3747011062414645
371 7.855406551627376 6.018485278212109 -6.900188885412994
124 2.025550523503308 6.142783239632493 0.771161839705024
288 4.495913239544424 -0.9316205145877673 -8.45481935702819