LAMMPS data file via write_data, version 8 Apr 2021, timestep = 0

768 atoms
2 atom types

-1.0143148746316772 30.957661818085235 xlo xhi
0 14.15093411515016 ylo yhi
0 13.537861103739562 zlo zhi
5.102516651397568 5.060369725128087 3.552136495499999 xy xz yz

Masses

1 16
2 2

Atoms # atomic

161 2 20.889823692161052 17.143386213856395 12.314758765816721 0 -1 0
26 2 5.182636149744348 4.911209125902057 13.282899219922154 0 0 -1
295 1 5.939740751305645 6.392952505207166 5.5891405934483 0 1 -1
297 2 6.890219314478048 6.483301652264846 5.387109453311275 0 1 -1
164 2 16.226102919173886 8.044481168747222 4.891085559946205 0 0 0
220 1 7.455907891323945 4.663269320640182 1.0831037311305536 0 -1 0
371 2 9.671988967116272 8.266461861017161 13.303710644477418 0 1 0
178 1 6.990174860261123 12.698994397824796 7.252842103993601 0 -1 1
352 1 8.56613685378487 6.91397158842129 4.813833333687945 0 0 1
150 2 10.27735427928986 6.326637342771182 1.7815287175684422 0 0 1
298 1 14.006182345570345 9.08056593952816 9.930876748700328 0 1 0
459 2 15.4423271180528 1.073960213146996 1.4795549312132483 0 0 0
60 2 5.411047996692253 3.644046043634974 3.913803670089935 0 1 0
148 1 9.451241666684133 6.628211843153476 2.127769238075017 0 0 1
425 2 1.2010008134270727 3.3977349702311836 0.6788148842153683 1 0 1
105 2 13.160025625656015 2.5927894259045567 7.2603425848016 0 0 -1
39 2 18.617190369202007 6.945410940601075 6.701596640481413 0 0 0
106 1 7.186618476069676 9.85648387225373 10.840927070008444 0 1 -1
162 2 17.24520761822887 3.5528837993830886 12.712621047644339 0 0 0
138 2 6.982682680738225 9.609923053109403 1.6259895300567582 0 0 1
58 1 4.563694543157492 4.083684888027557 3.9832256962172132 0 1 0
59 2 4.755795946507912 5.004208923269841 4.264911124941639 0 1 0
149 2 9.408726872004213 7.5514655871776455 1.8296909345295882 0 0 1
50 2 12.69310695629724 7.826164192722733 1.3308854997698711 0 0 -1
127 1 8.379149441582317 4.95387923886318 12.66675242334778 0 1 -2
47 2 23.98043812124185 15.975595567145097 12.55332494159053 0 0 0
172 1 10.723183834541457 10.683177980183546 7.922946961332839 0 -1 1
218 2 8.978505064620716 6.119087868392481 9.78114553487776 0 0 -1
351 2 12.072291496933973 6.244209693217811 3.3858309082467066 0 0 0
2 2 4.851972592988207 10.893805218813995 1.4855116734071219 0 0 -1
11 2 4.546042317819029 5.997159962364205 8.013535222520183 0 1 0
170 2 3.286107497468258 3.814521286763384 5.746720245434138 0 -1 0
353 2 9.233863246500498 6.6787138891540705 5.455887185466429 0 0 1
219 2 9.058346267756423 5.819555519255211 11.378257889646328 0 0 -1
61 1 8.554558876261575 2.683921033021858 2.7668041383535593 0 0 0
315 2 5.191984090226358 7.7801022122991546 4.424558882011435 0 0 0
237 2 14.462384296798138 8.064132239286947 2.22733753795116 0 0 0
324 2 7.63695152843779 3.43275214669034 13.065990338349325 0 1 -2
65 2 14.586303092582934 5.163187106014825 9.485921597126879 0 0 0
233 2 15.552670447794716 3.4023065986188046 9.238795070582627 0 0 0
217 1 9.540018290607469 6.251039703788138 10.591497037480485 0 0 -1
257 2 16.865193956229124 6.182715450178863 7.511058228975444 0 0 0
38 2 18.517900210854638 8.245505769090217 5.704168422100125 0 0 0
94 1 14.434049480780804 7.411524207909308 5.886190246890493 0 0 0
225 2 5.378864010512956 1.3389732871399054 1.8594656805068397 0 1 0
128 2 7.498351970120406 5.464386922041399 12.598912481527677 0 1 -2
372 2 5.902925151054559 4.846540946426279 0.7769105326901318 0 1 1
274 1 4.06435569127315 2.3327009649256056 1.5481812925134948 0 0 1
140 2 5.3044889946030365 8.438526555612295 7.571532106133056 0 -1 1
206 2 16.305285426195425 2.3511932858766262 3.2899364713615893 0 0 0
63 2 9.548385621696047 2.869871409127918 2.7785677729531795 0 0 0
129 2 8.880158050764257 5.38398783495454 13.419951364613315 0 1 -2
222 2 8.01794506528076 5.397637207482427 1.3871312899462893 0 -1 0
64 1 15.384895476574245 5.018744751167536 10.037397362611221 0 0 0
111 2 7.834858630148616 0.6831153092108525 1.4015786051179706 0 0 1
13 1 14.421741017161002 4.902597982356066 4.868844136170733 0 0 0
62 2 8.16168014426823 3.376021307864975 2.1764442516084554 0 0 0
332 2 12.357622458551324 5.136252126592622 1.083631105368017 0 0 0
275 2 3.5240752156394883 2.2337239672983706 2.379119721819971 0 0 1
250 1 13.167304933261676 5.581754522414525 8.643196711167755 0 1 0
368 2 7.689937080299424 6.887780442673613 8.065288532347182 0 1 -1
1 1 4.063715227897674 11.502360700155577 1.4840054666469353 0 0 -1
349 1 11.980649099537695 5.479458238344821 3.964070990432242 0 0 0
81 2 9.594316496760772 7.793398990831251 11.24818853538375 0 0 -2
85 1 10.74485855888427 11.140561291830043 10.648439330005042 0 -1 0
302 2 14.181280714240065 6.71864727833618 12.439032090054335 0 0 -1
301 1 13.457293471433609 7.224067041055781 12.01834483040874 0 0 -1
103 1 13.080551016071839 3.467418990755642 6.770736808998753 0 0 -1
6 2 11.43078580411957 3.989252499338874 3.1242818631442617 0 -1 0
303 2 12.908220248709952 6.553847262800328 11.548454939678996 0 0 -1
305 2 16.722697013497427 8.37490445139038 8.233881033047249 0 0 0
239 2 18.660906487651932 8.753975956472386 8.651401797413982 0 0 0
169 1 2.4710239440701383 4.339396906171042 5.982194081037154 0 -1 0
333 2 16.55818013038002 8.942158680653787 13.376649764560664 0 0 -1
346 1 4.64199451170811 3.2377104564047325 9.738989519436275 0 1 0
110 2 9.065267190002167 1.287126573543861 0.6036605671306723 0 0 1
331 1 11.410819439821456 5.225818836095169 0.8040984577653149 0 0 0
9 2 11.913056185552787 4.352467516929613 11.443274539751764 0 0 -1
4 1 11.11929295111952 3.051749248837811 3.171436397065618 0 -1 0
8 2 11.030782852925807 5.566809529411082 10.864713722017472 0 0 -1
5 2 11.910288433737943 2.4591226945002176 3.063464595979099 0 -1 0
7 1 11.943341560161347 5.21819322911355 11.013149493098338 0 0 -1
377 2 16.589153690261643 8.398097257107459 11.158621553089986 0 0 0
112 1 15.272076905315187 5.957834354634786 13.470565812954451 0 0 0
304 1 15.888425960934077 7.896644734329121 7.9852179802964836 0 0 0
367 1 8.470932112763851 6.293944146298129 8.205489122611075 0 1 -1
350 2 12.880976463907425 5.08566692280808 4.164478848860208 0 0 0
113 2 15.76627464578615 5.176377446386783 13.09075917539831 0 0 0
376 1 16.481057919450052 9.296444717109594 11.397064258407102 0 0 0
114 2 10.863185913931366 2.9428934287807382 0.36811884471838985 0 0 1
66 2 15.205752721309262 4.601775080091268 10.883076466337622 0 0 0
14 2 15.150408306062202 4.525152487063665 5.376234786314899 0 0 0
296 2 5.999801560111101 5.934864553960006 6.458397039164992 0 1 -1
369 2 8.199530426786081 5.395380766319359 8.012796826962044 0 1 -1
280 1 19.872408378557097 7.218167722789435 9.452175329022536 0 0 0
109 1 8.64342401589915 0.4349892066861758 0.8758575289489774 0 0 1
87 2 10.543686930881027 12.020737790623294 10.992889026088372 0 -1 0
184 1 18.644863698094817 5.838880782591377 13.478297095742239 0 0 0
277 1 16.571824784337796 6.039029569784543 3.2868531199477116 0 0 0
93 2 4.198782028109354 5.99686722033888 1.5216185044372095 0 0 0
15 2 14.318241904800859 5.721790253486778 5.36321165522069 0 0 0
299 2 13.797474794025277 8.456418367080564 10.649373399196993 0 1 0
179 2 7.4441461890536695 11.962116549368929 7.720088569846741 0 -1 1
160 1 16.425243969738066 3.78696996852461 12.229698239429915 0 0 0
17 2 16.97186007243314 6.106846019473357 10.731876099192007 0 0 0
37 1 19.141875728657183 7.625910146993756 6.204021677980575 0 0 0
18 2 18.429669341157886 6.70603316623927 10.479550463926007 0 0 0
231 2 12.869819838502112 1.7041906748936235 1.4618395396739292 0 0 0
104 2 13.606592688165842 3.46179878781127 5.991732251074826 0 0 -1
205 1 15.4564142455958 2.437136530496661 2.818786248626483 0 0 0
210 2 17.516128607191728 3.9856038962835902 10.409218183618709 0 0 0
186 2 18.294018967949334 6.239259983426057 12.639191432137542 0 0 0
232 1 15.749221607676207 2.5668073766929265 8.715275084974873 0 0 0
354 2 8.918306498251196 6.854721024760763 3.900145618446994 0 0 1
465 2 18.055900954966514 7.843636889743772 1.504809936012302 0 0 0
183 2 17.053423929998335 4.3577261249028645 6.410307228876202 0 0 0
40 1 21.010760836978733 9.448012864079802 13.345510682908108 0 0 0
207 2 15.416368920496831 3.3355798006980706 2.4641111788025243 0 0 0
208 1 18.227322214111815 4.1247925103616945 9.804956809896035 0 0 0
279 2 16.212176386344705 6.776245683841023 2.76499426058317 0 0 0
254 2 14.735999884563176 5.082437677547251 0.8804037371563445 0 0 0
181 1 16.54458268260176 3.7050537497894016 5.893118354757694 0 0 0
182 2 16.160421230476647 3.107591032293314 6.637455489236871 0 0 0
256 1 17.61986231807259 5.589433676806188 7.407221349645162 0 0 0
255 2 13.870559686653637 3.8798445780910695 0.7727573351076066 0 0 0
253 1 14.238031955088292 4.480296124282317 1.451638323304723 0 0 0
157 1 14.253760105023442 1.378419917570016 4.9437956201204765 0 0 0
185 2 19.42158364841955 5.299701687868339 13.247708407561307 0 0 0
278 2 15.816510003384957 5.497986041699738 3.4853471713754685 0 0 0
159 2 14.371140130945168 1.6648988990165963 4.01567738692565 0 0 0
16 1 17.61287161247833 6.7784575246232555 11.00636981640508 0 0 0
258 2 17.766545492050412 5.204316503792227 8.278106656851485 0 0 0
370 1 4.9117667778446465 4.636980253409904 0.705609165817152 0 1 1
80 2 10.172831884223829 9.196974962967738 11.321976108481625 0 0 -2
306 2 15.360045162469609 8.024973709934546 8.790100758085819 0 0 0
79 1 9.515342142206272 8.642214485323516 11.663505315372142 0 0 -2
246 2 7.826226702034165 12.633628497436156 3.761427970620972 0 0 0
108 2 7.011330306610833 9.49799207675074 9.958868158294504 0 1 -1
300 2 13.589422776593917 9.985466869651802 10.14829240163342 0 1 0
221 2 7.7953216378315835 4.39152967515082 0.16688856982549097 0 -1 0
348 2 4.162356037516238 3.735761390597225 10.458043282440249 0 1 0
251 2 12.679508222925296 5.375735683241133 9.49241607946654 0 1 0
139 1 6.0325998986785265 8.151272273293555 8.22521442986449 0 -1 1
276 2 4.198765805585051 3.235421126525637 1.3690424666459358 0 0 1
313 1 4.829928794882625 8.281471733205024 3.6889437241077254 0 0 0
252 2 12.981701513091927 4.814913191139719 8.029201443309693 0 1 0
91 1 3.685645909831865 6.765849904794239 1.893819648127564 0 0 0
195 2 11.196307186376671 6.253976856528187 6.935487055909157 0 0 0
229 1 12.66862428534443 1.2210066276555571 2.2452812309681978 0 0 0
194 2 11.435938113048188 6.325285943683668 5.400530673650166 0 0 0
193 1 11.362457045823593 6.907127950892404 6.211592581575385 0 0 0
141 2 6.696859300654568 8.83488652613592 7.98685641774761 0 -1 1
234 2 19.93294821504592 16.339907319031425 8.707393738820832 0 -1 0
96 2 14.981654634845464 7.467227057384532 6.67558808494972 0 0 0
34 1 17.05962923664064 16.89547745830511 12.415291148709768 0 0 0
380 2 15.96551568563998 14.60073567147646 5.515337859394529 0 0 0
158 2 18.41395848914982 15.281929831589121 5.0863242781539535 0 -1 0
92 2 3.1298399159645562 6.421118960128537 2.629933128314848 0 0 0
35 2 17.698061201554683 17.239023688445194 13.061831634138594 0 0 0
267 2 11.248260464741959 3.6834848610532354 6.2074035821236535 0 0 0
266 2 10.341247337881857 3.5235403051397864 4.946336363988963 0 0 0
244 1 8.553808130984088 12.105934725838202 4.089570996900049 0 0 0
86 2 10.63740991417489 11.000199115679573 9.660497564375472 0 -1 0
226 1 11.13620909569154 10.131850140161758 2.9508715176722595 0 0 1
77 2 11.996357888688499 13.209618859385483 5.737475663148817 0 0 0
227 2 11.500725151560161 10.260325808299477 3.858435874937284 0 0 1
82 1 9.410493735472123 15.577242644829608 5.5189492692033895 0 -1 -1
166 1 19.01113899570867 10.740789684072721 11.888843609080087 0 0 0
228 2 11.355488371836316 10.953582243777237 2.5005434982533736 0 0 1
330 2 6.663789796762711 9.631679008519392 4.454449503039427 0 0 1
467 2 20.69266816194288 9.85377167076428 8.268813186025204 0 0 0
241 1 7.923296540311678 13.515864343135716 12.998587830120961 0 1 0
120 2 12.724453002126543 9.76847717415116 0.031413292671448996 0 0 1
176 2 10.87761164427079 14.694909518465764 11.574478051934474 0 -1 -1
294 2 9.538445814444724 13.422106706343065 12.449077116860657 0 0 1
270 2 5.317012438510184 4.237109856263394 8.524238217874537 0 1 -1
118 1 17.503585378656602 12.424689186472378 13.412253684850013 0 0 0
322 1 12.413930133406648 16.679837986938878 13.243979646806183 0 0 -2
238 1 17.928432356127274 9.35467637066715 8.57220276423223 0 0 0
132 2 12.769808258070057 11.2400492450156 5.347288391934094 0 0 1
196 1 13.496910794126647 11.161497958932879 0.7662943255192584 0 -1 0
83 2 9.153727554946784 15.53555468078895 6.514923711351291 0 -1 -1
290 2 9.643898098917704 9.623344290533215 2.1551950485061595 0 0 0
334 1 16.496532734794513 12.600326613526601 7.75105068794077 0 0 0
285 2 18.776294427800888 13.954851025809333 2.576689991085785 0 0 0
284 2 19.54674894212907 12.587891592833115 2.2750599073220306 0 0 0
147 2 12.47768418339844 15.43992532116261 10.012241018247266 0 -1 1
364 1 10.120592617050937 12.805398866373617 5.9532546432323485 0 0 1
320 2 1.8512461343919722 1.93746457840806 3.676778576317484 0 1 0
344 2 7.463552975704697 2.746911535246987 3.956446866033464 0 1 0
27 2 5.455482641765547 6.206286899795048 12.297017220786762 0 0 -1
209 2 18.099641649275082 3.36094774006732 9.237346255457982 0 0 0
180 2 7.716640082054631 13.376579415275206 7.285396690489446 0 -1 1
230 2 11.821695455416702 0.7302082208255937 2.075667393963505 0 0 0
56 2 14.970461185865855 13.799344385703732 12.393820559169654 0 0 -1
168 2 18.621972221846026 11.324488585987531 12.643844850793547 0 0 0
245 2 8.255115752340057 11.220800434249496 3.9314386695367625 0 0 0
145 1 13.323440900770514 15.390544930299969 9.427531535439208 0 -1 1
57 2 14.339922726620173 12.476707392628805 11.895050397495945 0 0 -1
328 1 7.55852139203795 9.600264507931007 4.893980917391708 0 0 1
199 1 7.909742351639303 10.114745714221591 7.603952920110472 0 0 1
28 1 11.294683044395134 12.496970016685903 1.683020627780632 0 0 1
336 2 16.665672025480603 13.378404319491086 7.20139124033433 0 0 0
366 2 9.511158628737505 12.435156825929113 5.237514186960855 0 0 1
287 2 21.86452272348835 15.222048363756311 9.060885287340033 0 0 0
224 2 6.434670116880698 0.9804887660358184 2.9634829957099544 0 1 0
55 1 15.085527431264415 12.818274963461237 12.434794970534332 0 0 -1
216 2 20.11754988542747 11.831995060620606 8.872355073037355 0 0 0
329 2 7.942907731214507 8.810367226779428 4.555894499875744 0 0 1
33 2 13.026749798499246 8.695753091801881 8.41252824928231 0 0 1
312 2 17.647053426628183 15.392719147071139 8.91598749489342 0 0 0
335 2 16.860377461425326 12.668996265128927 8.627789627297355 0 0 0
97 1 14.2870530175774 14.378064764535313 4.278631831621393 0 -2 0
268 1 5.917777273437885 4.685043915109847 7.904332032423389 0 1 -1
98 2 9.189701930527967 1.1541723624799363 3.944725197070653 0 -1 0
310 1 18.423633050569943 15.449315920021006 8.34869391769485 0 0 0
273 2 8.905436274755408 3.3856444822883027 6.783009393092434 0 0 0
197 2 13.883543686926986 10.862169663722756 1.628830811490962 0 -1 0
125 2 2.016702017444133 7.113763775578141 0.8049064700582302 0 -1 1
345 2 6.905568723095392 2.9287239829768184 5.4580489952337485 0 1 0
319 1 2.5789804349709895 1.2637986323434238 3.4599062373942964 0 1 0
272 2 8.23362295802048 2.5995290718639366 7.969841892416522 0 0 0
264 2 19.0252014414815 12.448351756376999 7.186365876327193 0 0 0
142 1 13.493367235348384 11.468319891398348 10.781478738262832 0 0 0
263 2 20.24021150442431 13.50150473037351 7.551508662413789 0 0 0
121 1 6.41624368798902 13.397601013106115 2.23199401310918 0 0 -1
269 2 6.518547349768975 3.9178761051273217 7.643847243928089 0 1 -1
167 2 18.30216053032265 10.113117276001255 11.635959947559462 0 0 0
215 2 19.930190445038946 10.929278387255088 10.21010774388142 0 0 0
271 1 8.053444466764057 3.192469120428033 7.250806592187326 0 0 0
262 1 19.43927637690578 12.918577155112745 7.860003425503044 0 0 0
31 1 12.62358822917937 8.795301022259626 7.497729938515761 0 0 1
192 2 21.68330077223282 13.59580153166838 13.503222217385161 0 0 0
214 1 20.512853530089775 11.058665956476444 9.39352655593604 0 0 0
240 2 18.017492007998694 9.857473152946952 7.743542159222092 0 0 0
321 2 3.375296844024243 1.3424708783476083 4.0994679244757295 0 1 0
343 1 6.701761753650898 2.5324297364021207 4.600610764003772 0 1 0
153 2 15.295218860318153 15.962624222047873 12.499263402247424 0 -1 -1
44 2 20.351652946709066 15.061048615773647 6.076773616502196 0 0 0
291 2 9.274407264213762 9.376282322032724 0.622656461079173 0 0 0
173 2 11.346608066496055 9.999085681981386 7.571968547089354 0 -1 1
51 2 12.28278176336071 8.432456549604234 2.6121101825626196 0 0 -1
200 2 7.700376969690184 9.980882053753382 6.628716480047817 0 0 1
88 1 13.881828554613284 12.726693510628053 8.453964626454106 0 0 0
198 2 12.898690944438282 11.919483292042862 0.9884775827817138 0 -1 0
84 2 5.104103935235496 1.9438775667304615 5.34409522906393 0 0 -1
152 2 13.836534331422252 15.658941421524089 13.026006003828982 0 -1 -1
311 2 18.723697933959407 14.566527543062383 8.045339971528096 0 0 0
359 2 16.30535633987409 14.726254712780534 10.200449501583167 0 0 0
265 1 10.290944189996383 3.4470967374232617 5.899172319099988 0 0 0
48 2 19.386351040885444 13.527874120688601 0.08438220715597007 0 0 1
72 2 16.66820930789983 12.51003386928586 10.935066947947202 0 0 0
42 2 20.435882173900303 10.093174549370287 12.872989889949787 0 0 0
177 2 11.539738770387624 15.973343565938903 12.018102065549 0 -1 -1
190 1 21.106441630063728 12.817093285495632 13.21027949455126 0 0 0
223 1 6.230436822002439 0.8571977047664006 2.0337924885075562 0 1 0
191 2 21.71234986560413 12.44965132661557 12.544426159753906 0 0 0
382 1 19.96609767838124 15.94232453294462 12.378684959320612 0 0 0
19 1 16.985712203335527 11.788170900961514 4.488171516373326 0 0 0
20 2 17.618028642718276 11.974002616810656 3.8037886056008294 0 0 0
21 2 16.23750298186997 11.415777762666751 4.057508431821931 0 0 0
379 1 16.848773955751746 14.232529872630503 5.707180003495411 0 0 0
43 1 21.012797429154265 14.52705360889375 6.621804663484275 0 0 0
381 2 16.74158908696378 13.388407298122573 5.229729975998395 0 0 0
67 1 14.799002513141541 10.715404199996444 3.1560613059774005 0 0 0
68 2 14.103001023422157 10.488767387006634 3.8479248241614488 0 0 0
69 2 15.316788149655144 9.897582187956903 2.978441807619512 0 0 0
119 2 16.645916208489425 12.502346038826909 12.891905071378917 0 0 0
146 2 13.287269867897814 14.472881802202224 9.100237102338887 0 -1 1
360 2 15.154285302387057 15.684599913938317 9.84702831269269 0 0 0
115 1 15.303514342847963 10.465169643082394 6.393894206328692 0 0 0
116 2 14.91313891977136 9.86405269710206 7.041415424698773 0 0 0
365 2 10.044388152389704 13.736242682446445 5.688665364516618 0 0 1
136 1 6.033645145110093 9.446851632094932 1.539318731752033 0 0 1
144 2 13.729545651044463 11.954975506313682 9.93059538572585 0 0 0
383 2 19.834351592784564 15.2753699424627 11.676462433912457 0 0 0
163 1 16.845781013466162 8.777946479380052 4.924145959900373 0 0 0
286 1 22.199310200420644 14.363558044307956 9.444650998149733 0 0 0
165 2 16.349976596227542 9.429768577901392 5.442207382045564 0 0 0
187 1 18.777759977127225 10.774520892752683 6.328399694855956 0 0 0
188 2 19.432925631973717 10.45464139008959 5.622320765239146 0 0 0
189 2 18.096369052203674 11.196154829940141 5.729127467207641 0 0 0
30 2 10.676361655371252 12.321937590403099 0.9820133196610528 0 0 1
211 1 18.335262072244635 9.33941825283614 2.7083284820783313 0 0 0
213 2 17.681666188106806 9.117041076530773 3.392102979525994 0 0 0
235 1 15.456098062747598 8.177761926638823 2.117334783818186 0 0 0
236 2 15.637681374641227 8.551694501924707 1.2040132335954938 0 0 0
78 2 13.487440706533075 13.515607404500289 5.387198732312115 0 0 0
260 2 17.93362359125846 11.732549018623507 0.8023669654824099 0 0 0
95 2 13.57754287187416 7.7914778803891185 6.181072168535382 0 0 0
259 1 17.337655885621146 10.991702961611983 1.0728369394409496 0 0 0
117 2 15.793888313324173 11.193558747258152 6.834266416080927 0 0 0
261 2 17.89079049508033 10.440521191845958 1.7050107137607917 0 0 0
283 1 19.192278725550864 13.180078159805863 2.968262270929917 0 0 0
347 2 10.283151432155423 16.77934553171889 10.243811621207541 0 0 0
247 1 5.156046833223575 11.35218527229771 5.214263898361553 0 0 0
307 1 15.794781185689532 13.422409561576236 2.1057857722162305 0 0 0
89 2 14.79035514054714 12.537940177256191 8.121042158548958 0 0 0
309 2 16.191295871010475 12.743025106165097 1.5977456925870996 0 0 0
29 2 11.242195980380174 13.504841395903075 1.851365251607637 0 0 1
49 1 12.864815939602561 7.7078706977339255 2.304035300628208 0 0 -1
175 1 11.308360585875002 15.499854029861256 11.222206988988352 0 -1 -1
326 2 7.815590568044363 15.820637043290803 7.9327559283960465 0 0 -1
358 1 16.099929389539977 15.615675909518448 10.140587312940426 0 0 0
289 1 8.935616220791124 9.286127767644256 1.5176164605092997 0 0 0
22 1 19.789062550312313 13.721247596944623 10.84483579266356 0 0 0
23 2 20.545397443952638 13.839213774640235 10.272221568944333 0 0 0
24 2 20.208219930374085 13.321325804917851 11.6439346709754 0 0 0
143 2 12.50049412506881 11.545062695666378 10.700611220345394 0 0 0
46 1 23.704229423864476 16.594176794797978 13.242880473410537 0 0 0
70 1 17.15085672201663 13.037296504609037 10.279273798696002 0 0 0
71 2 18.12475536956479 13.095048110130628 10.450788425309293 0 0 0
325 1 8.674944095774942 15.303258099402834 8.02818388105975 0 0 -1
130 1 12.754905505567415 10.358798516516687 5.014153138374116 0 0 1
151 1 14.76745470797718 15.32531368608595 13.029444758447092 0 -1 -1
201 2 8.903820626302224 10.08042220261902 7.679429489022179 0 0 1
323 2 7.152735181172669 13.192364503509527 0.709252247546251 0 0 -1
131 2 13.002426403684202 9.74790947896047 5.748280726400732 0 0 1
76 1 12.908739300089875 12.948698867191563 5.973730307634118 0 0 0
327 2 9.268305452774495 15.990440364950238 8.445678225015145 0 0 -1
32 2 12.248148118166252 7.951894949468028 7.298375469418833 0 0 1
293 2 10.8331417481243 13.112420221425841 13.160152470020966 0 0 1
174 2 10.600314609003693 11.402290991058285 7.258936251189083 0 -1 1
249 2 5.813210938965459 11.680399195878355 5.830411187448392 0 0 0
99 2 14.633203462038713 13.781841522250264 3.5854524945085995 0 -2 0
384 2 19.416963818798177 15.616966763025351 13.085393680287805 0 0 0
25 1 5.767703484419522 5.708505889698245 13.101893403652747 0 0 -1
122 2 5.664259484129496 13.354303146662266 2.804005080325235 0 0 -1
10 1 3.6421534389907997 6.344468008144266 7.8947249281336225 0 1 0
314 2 4.49194651186068 7.534615804682807 3.0645162367488625 0 0 0
292 1 10.482003332516971 13.220909730722504 12.244931360891488 0 0 1
107 2 7.892210721480377 9.346363275129722 11.273829749630885 0 1 -1
123 2 6.920835848791376 14.161151451180146 2.495447132394885 0 0 -1
90 2 13.328443114551936 12.597060784431568 7.659203766406146 0 0 0
248 2 4.689903706552916 10.709468625348151 5.747861189179301 0 0 0
308 2 15.050385279773751 13.751145352015492 1.5597897525364577 0 0 0
137 2 5.766550344738304 9.023165166664963 2.351831909954347 0 0 1
102 2 5.284846334627577 7.851977968758119 10.043187389884913 0 0 0
378 2 15.733857143935738 9.54834716744196 10.785811220061673 0 0 0
36 2 17.63714999401232 16.380789502740544 11.819704950616696 0 0 0
45 2 21.406463638236165 13.913316278057183 5.915843098847499 0 0 0
41 2 16.788246993674793 6.372264599551127 0.03821707026685346 0 0 1
243 2 7.536235076147929 12.609063982368422 13.16803263134407 0 1 0
3 2 3.5913593120428464 11.104583122471542 0.7255557919956641 0 0 -1
281 2 20.478489300222442 7.600309050436713 10.101977571586762 0 0 0
134 2 7.535563266162794 14.464915642390684 10.05485807380434 0 -1 0
424 1 1.1547555617061225 4.105954477372139 1.382386001381308 1 0 1
242 2 7.491935610573331 13.877395302181663 12.231102129039469 0 1 0
728 2 20.664401364899806 12.709846406661317 4.223553316026918 0 0 0
12 2 3.1842862915324703 5.69246218226266 7.303658926148775 0 1 0
74 2 4.509303387549562 13.756933003741603 0.8981836781241219 0 -1 0
212 2 19.118254311899566 9.463715305657173 3.2560186831535516 0 0 0
171 2 2.249742237005865 4.89089628364854 5.173846002088579 0 -1 0
507 2 17.306837359394077 2.66179084029219 4.987379488538377 0 0 0
385 1 22.17587308154815 4.6492562632125995 4.046311925784134 0 0 0
386 2 21.800370922869142 5.479829798343112 4.399530720199734 0 0 0
387 2 21.45588525395939 4.106346835099273 3.672546407815605 0 0 0
409 1 26.21262818535796 7.9826044905316165 6.476034016466424 0 0 0
483 2 19.308467690241873 3.3547999185169033 6.512590693459284 0 0 0
466 1 21.053459770917346 9.329236162588984 7.520919267032067 0 0 0
692 2 31.13156821244841 14.292755985909396 2.0104833442747934 0 0 0
433 1 20.079258930596772 3.3050488176200203 3.2502578150623522 0 0 0
434 2 20.313985160717575 2.4120222818953745 2.907464222236965 0 0 0
435 2 19.53683498790405 3.7545739389376385 2.511977537261375 0 0 0
602 2 25.88445621443027 14.560022531239353 2.0784137177596196 0 -1 0
202 1 34.138854317716714 6.093950915851482 3.9104955231703578 -1 1 0
677 2 22.194233685014034 8.484850412769774 8.194972966000543 0 0 0
481 1 20.047655884130606 3.848679294762323 6.074235911229814 0 0 0
482 2 19.66912853315174 4.436301772107441 5.3825883046217875 0 0 0
650 2 24.990917228403557 6.21083866779165 3.345747062730074 0 0 0
505 1 17.7235369966581 1.9950177679017953 4.321760340557165 0 0 0
506 2 18.438761506328404 2.5907381086599583 4.003363476918563 0 0 0
529 1 21.608594416191597 1.814920154534355 5.229676533816498 0 0 0
530 2 21.154773843082275 2.6110891585491367 5.51731494557794 0 0 0
531 2 21.98119591215641 1.9651138405417363 4.343718631390623 0 0 0
553 1 23.600870842766753 4.125319024385172 6.426465998082162 0 0 0
554 2 22.90377858107024 4.557626192611557 5.933252390537905 0 0 0
745 1 21.947154805736393 7.258077509729227 5.047297129856197 0 0 0
577 1 22.843763560448984 2.1743938524679947 2.869129267414058 0 0 0
579 2 22.807110224411502 3.009453198345015 2.3237760700427357 0 0 0
601 1 20.147229958436125 1.0473011283844582 1.789601458464407 0 0 0
666 2 34.91958036312092 8.184718484317195 9.971811003480013 0 0 0
603 2 20.488440433594132 1.4582712265318025 0.9479245490146795 0 0 0
410 2 26.8032871601337 8.439268736162 7.075593868184088 0 0 0
625 1 22.148417204089295 4.2273315086084295 1.140196350008174 0 0 0
627 2 21.639131607216214 4.890534111556516 1.6342670744079173 0 0 0
649 1 24.25868735089935 6.060492373911347 2.718268645115971 0 0 0
578 2 22.851914295477595 1.4618607276979976 2.2244626572450716 0 0 0
651 2 23.690324228211477 5.445356426705899 3.2071819302951035 0 0 0
673 1 20.51589618729 6.322027801338648 1.9443128748515277 0 0 0
126 2 32.899657767999614 8.174712400275421 1.2189058746324588 -1 -1 1
675 2 20.106796909118042 6.156409982550865 2.846790067541932 0 0 0
697 1 18.294744745193533 4.2306023869370835 1.423991050063049 0 0 0
593 2 32.22798837821107 4.083484859198615 10.0280847134435 0 0 0
362 2 35.33451248750383 13.589454144721746 3.645125315850129 -1 0 -1
746 2 21.98140649805792 7.035561591908457 6.016858110475242 0 0 0
721 1 19.36272060031935 5.752245185424387 4.328385644410353 0 0 0
626 2 22.842983962068516 4.781618710510652 0.7148153945004525 0 0 0
73 1 35.713671830347494 14.279557015393777 0.6564130203208797 -1 -1 0
411 2 25.858540717849078 7.264994099825532 7.028058543077933 0 0 0
678 2 22.62862272218493 8.272478066929853 9.677566819918939 0 0 0
388 1 24.50799995129408 6.647382690827355 10.801634323430477 0 0 0
389 2 24.203870674211288 7.525845451376349 11.17365062423031 0 0 0
390 2 24.97404926871689 6.325885069526437 11.582845285697408 0 0 0
412 1 28.563904150268748 9.64649709199668 13.332443839251344 0 0 0
340 1 35.178187647123444 5.058046763722411 10.959765260012164 -1 0 0
436 1 22.297651114859175 5.26353891984545 9.935400098923154 0 0 0
437 2 21.617672812071724 5.188614266378771 10.638664265276573 0 0 0
438 2 23.089958380723782 5.779872390364903 10.312040412050614 0 0 0
724 1 21.587543928767833 7.851558425718421 11.316172801966285 0 0 0
654 2 27.503866874879044 7.748797439160693 9.980429017601988 0 0 0
748 1 24.3763158145222 9.009410836166262 12.28325907392117 0 0 0
485 2 17.94911146467796 2.964609824143833 0.10731980547093674 0 0 1
484 1 22.584978127949807 5.9657712178548055 12.946669633811211 0 0 0
508 1 20.437896235991136 4.476386038868168 11.578056746887654 0 0 0
510 2 20.636571049407895 3.599728549729078 11.955172000680214 0 0 0
558 2 26.640796022045656 6.599854801027458 13.344326601190144 0 0 0
532 1 23.75271966987086 3.7686621406011214 12.0155387222878 0 0 0
533 2 23.451634318282085 4.682769909779376 12.315228878026598 0 0 0
426 2 32.64237195406802 4.7500616138603995 0.9504069085809732 0 0 1
556 1 26.065669543728696 5.916420939478593 12.93747905977046 0 0 0
557 2 26.7599007642328 5.440525456404221 12.404133910383914 0 0 0
580 1 25.47174908080709 4.023766304179652 9.706907136664576 0 0 0
581 2 24.80277271382697 3.8635693271463083 10.45755478978213 0 0 0
582 2 25.171619300414285 4.799877860309478 9.221648585254526 0 0 0
630 2 24.43633870531382 5.552290022781161 7.246648818673332 0 0 0
604 1 22.90420689422415 2.758043948068632 8.865256007066785 0 0 0
605 2 22.643179228291554 3.635972321233569 9.315000303088459 0 0 0
52 1 36.03307830038468 9.607994839230935 13.04392237888523 -1 2 0
462 2 24.481915413855937 15.767535589862591 8.052415278329729 0 -1 0
628 1 24.794040757944046 6.086360276419455 7.975874812232332 0 0 0
629 2 24.097350022150447 6.7265121520987075 8.281895495438288 0 0 0
317 2 32.810869521450506 3.594106862899404 2.933637586941409 -1 0 0
542 2 33.36025277912946 15.390966450787255 5.364017081074908 0 -1 0
652 1 26.76437357885027 7.615416895691624 9.39406716604488 0 0 0
653 2 25.966234163044334 7.259818076512672 9.869091599273744 0 0 0
676 1 23.009697238434516 8.409151227597311 8.80192318216416 0 0 0
738 2 28.918831864828455 7.213631822144402 11.819426582456218 0 0 0
750 2 23.855695407348428 9.72556462847665 11.914083068050429 0 0 0
700 1 21.54463106139432 5.992551226703044 7.418124430278677 0 0 0
486 2 21.94338729498034 5.36902383771583 13.308072640312202 0 0 0