LAMMPS data file via write_data, version 15 Apr 2020, timestep = 6647000

576 atoms
2 atom types

4.3769204073438139e-01 1.7482308959237056e+01 xlo xhi
2.3269104073450642e-01 1.7277307959237181e+01 ylo yhi
5.8269204073438630e-01 1.7627308959237229e+01 zlo zhi

Masses

1 16
2 2

Atoms # atomic

392 2 2.6622466748581854e+00 3.5233011196456259e+00 1.2753587938248150e+00 0 -7 6
393 2 3.8851595730768684e+00 3.2876571218586190e+00 2.1467616455425058e+00 0 -7 6
234 2 4.4899264435459916e+00 5.3659230583123696e-01 1.7072617837063584e+00 2 4 1
432 2 1.2175551594452867e+00 3.6837830683101149e+00 4.0263695504382397e+00 -7 -6 3
408 2 8.6349370322562780e-01 1.5599783836645809e+00 4.4183572212735385e+00 0 -2 0
391 1 3.3000619955970794e+00 4.0246730996112490e+00 1.8441537220386859e+00 0 -7 6
241 1 5.1389395944659126e+00 2.8954845151492909e+00 4.0769967473372972e+00 -1 7 -3
232 1 5.0747813598568534e+00 1.2680573817548553e+00 1.9968195542485023e+00 2 4 1
233 2 5.9894266615686078e+00 8.9313416918964383e-01 1.9427576740190828e+00 2 4 1
102 2 7.0965173352156787e+00 4.0195970117372664e+00 9.6557208697430674e-01 -2 2 5
242 2 5.1533331186529887e+00 2.0693090343235867e+00 3.4891010171191610e+00 -1 7 -3
243 2 5.8675118877619301e+00 3.4401567235798569e+00 3.7549002783665655e+00 -1 7 -3
199 1 8.3528016149978690e+00 8.8824409414101269e-01 4.1479102577542601e+00 5 -5 0
200 2 8.4614557486756166e+00 1.8266566419219048e+00 4.1780372150556353e+00 5 -5 0
201 2 8.2714019418915186e+00 7.2092396790080571e-01 3.1695263590731106e+00 5 -5 0
259 1 7.9931952788129372e+00 3.1852896970848028e+00 2.0758220238827731e+00 -1 -2 3
261 2 7.9812902060755828e+00 3.9131305207217726e+00 2.7456349415322880e+00 -1 -2 3
260 2 8.8792441537094220e+00 2.7980340240807715e+00 1.9358325768430988e+00 -1 -2 3
371 2 6.5923523335344409e+00 4.1847200740631274e-01 4.5396073202959046e+00 12 5 -1
272 2 9.6097407514995972e+00 4.0000343698312246e+00 4.3367108306710458e+00 4 -1 2
24 2 1.1343326600049362e+01 2.1244271337573108e+00 8.7076481221127278e-01 2 -7 -2
57 2 1.0990895353739276e+01 4.2261197906119676e+00 2.6287367279037817e+00 0 -1 1
40 1 1.3150820073658140e+01 4.3604680938465581e+00 2.4360062000084421e+00 -2 0 3
106 1 1.2216858553143933e+01 2.6808156437471331e-01 1.9228962048940672e+00 -4 0 3
22 1 1.0497127789309909e+01 2.5540324454447334e+00 6.2338138368203877e-01 2 -7 -2
509 2 1.6686891895409161e+01 1.1312643057651115e+00 2.1567241576911553e+00 -1 -2 -1
350 2 1.5125655967310312e+01 2.5757381843934684e+00 4.5180134827855074e+00 -2 -4 -1
215 2 1.3550204413549420e+01 1.4805680108155153e+00 1.6174211751987599e+00 1 -9 4
216 2 1.3708100151615055e+01 3.0241668706117664e+00 1.6902101990602629e+00 1 -9 4
510 2 1.6106921480955499e+01 1.1169160721084757e+00 3.5775106531766472e+00 -1 -2 -1
349 1 1.4996422190452005e+01 1.6317784139330411e+00 4.3855109340640279e+00 -2 -4 -1
214 1 1.3989045864187364e+01 2.2309792433207112e+00 1.1811730686703443e+00 1 -9 4
93 2 1.5423037022344166e+01 1.7980885534600490e+00 6.7131375942084470e-01 -1 -2 -1
508 1 1.6822044132086660e+01 6.3103968270080524e-01 2.9723481643258260e+00 -1 -2 -1
41 2 1.3919390979348634e+01 4.3227845722195637e+00 3.0080768901449804e+00 -2 0 3
351 2 1.4149125342370445e+01 1.2868125066130907e+00 4.7790696388745069e+00 -2 -4 -1
431 2 1.7519908822663444e+00 4.6857721906588363e+00 3.0364272666159331e+00 -7 -6 3
430 1 1.0258863407861738e+00 4.5711399352061983e+00 3.6451857383034345e+00 -7 -6 3
165 2 2.8256231161625798e+00 7.1557816811917041e+00 3.2907621385031680e+00 6 -2 -1
163 1 3.4021852784458453e+00 6.3736885943623713e+00 3.3161938661678403e+00 6 -2 -1
164 2 3.3504060631088506e+00 6.1004897174429011e+00 2.4088607857085487e+00 6 -2 -1
82 1 1.7250441785555579e+00 8.6038393932240318e+00 3.0933227046120821e+00 1 -1 3
101 2 6.0877305032777906e+00 5.2416220520717740e+00 8.9918476043623063e-01 -2 2 5
284 2 5.4339200920580417e+00 8.1425998313089103e+00 1.7017837920113639e+00 3 -5 0
283 1 6.0530090125737592e+00 7.5774124990623468e+00 1.2930348950459152e+00 3 -5 0
280 1 6.9334172097735989e+00 5.3528784119870103e+00 3.4958490059393319e+00 0 0 -6
281 2 6.9660541596678067e+00 6.1304121087237524e+00 2.9009005356986179e+00 0 0 -6
458 2 8.6945542582171491e+00 6.9222833915000743e+00 1.0409106470715337e+00 6 1 -2
105 2 8.8698691059888919e+00 7.0008211178096689e+00 3.7935467233531637e+00 0 0 3
162 2 4.6993967868417474e+00 6.8309591994748864e+00 4.4033180267080754e+00 1 8 6
282 2 6.4021269760075219e+00 5.7475174644112998e+00 4.1819845413761030e+00 0 0 -6
104 2 9.7868067333670226e+00 7.6302493976390622e+00 2.7438462276413054e+00 0 0 3
103 1 9.1979876973250452e+00 6.8899476808759221e+00 2.8692024711758015e+00 0 0 3
55 1 1.0360335115531242e+01 4.6541370755881912e+00 3.2668219365690963e+00 0 -1 1
56 2 9.9807628823616330e+00 5.4351966407754970e+00 2.8580759641040387e+00 0 -1 1
516 2 1.1991573308758873e+01 5.7851788618664282e+00 4.1116597009540721e+00 5 4 -3
29 2 1.2780777457884581e+01 7.8759192322323166e+00 1.2327182643028602e+00 -1 2 8
514 1 1.2409054725162703e+01 6.4266933234135761e+00 4.7003662651226783e+00 5 4 -3
28 1 1.2807206505136145e+01 8.7361200834341570e+00 1.6613786920672950e+00 -1 2 8
30 2 1.3481933570058699e+01 8.6187747858244386e+00 2.2990849990894526e+00 -1 2 8
315 2 1.6316511745816889e+01 8.6312973422933723e+00 1.0909908031825457e+00 -2 2 -2
88 1 1.5272964265706255e+01 4.5690629765225781e+00 4.0161839793290266e+00 0 -2 5
90 2 1.6215422589621436e+01 4.6000899174437277e+00 3.7383982776002043e+00 0 -2 5
133 1 1.6344794260081805e+01 7.1919993754253655e+00 2.0302291567788160e+00 4 -4 -3
446 2 1.3775874701469014e+01 7.2641975947715931e+00 3.8055175805151982e+00 0 4 8
134 2 1.7131085277899189e+01 7.5385218340214175e+00 2.4748185760587189e+00 4 -4 -3
445 1 1.4463323185365130e+01 7.8761707661030744e+00 3.5284297526351387e+00 0 4 8
42 2 1.3339801626752475e+01 5.0360085031302155e+00 1.7665040973071227e+00 -2 0 3
135 2 1.5562923107533079e+01 7.3426698104980801e+00 2.6082240700247148e+00 4 -4 -3
447 2 1.4828092704054736e+01 8.3050408781922354e+00 4.3157013384216274e+00 0 4 8
60 2 1.6575789197404816e+01 5.8089243397903996e+00 9.8989919594514730e-01 -1 -3 3
406 1 1.0700551700018193e+00 2.1547557265753099e+00 5.1874819231172049e+00 0 -2 0
407 2 2.0008849992346791e+00 1.8927457825026508e+00 5.4272121866398964e+00 0 -2 0
530 2 4.0080482198192682e+00 4.0003513789758323e+00 5.4660685938346907e+00 2 1 4
481 1 3.4574348200298313e+00 1.5734029201897686e+00 6.3352573822592557e+00 -5 -1 6
483 2 3.7499720264966871e+00 1.8198680322621970e+00 7.2486321483365188e+00 -5 -1 6
482 2 3.1860593282117375e+00 6.0113263794737981e-01 6.2953796176439898e+00 -5 -1 6
110 2 1.4216577935926189e+00 4.0391050571774931e+00 9.0721343485252550e+00 -1 -2 -3
382 1 7.6799630360981528e+00 1.7905361695201345e+00 8.4803697246937340e+00 1 -3 -1
236 2 5.3410805463304341e+00 3.7996364087779799e+00 6.9755073374228136e+00 1 1 0
237 2 5.5620291124949848e+00 4.0009953833590677e+00 8.5129863110849762e+00 1 1 0
384 2 7.8602471023573148e+00 1.2938394892685359e+00 7.6773176254175715e+00 1 -3 -1
235 1 6.0039212764267571e+00 3.7955692634050968e+00 7.6724290783268883e+00 1 1 0
383 2 7.0424388692338225e+00 2.5482072908042608e+00 8.1879304081580599e+00 1 -3 -1
372 2 5.1468321849131833e+00 9.2580880424665557e-01 5.1172079670355846e+00 12 5 -1
273 2 8.5896031928804657e+00 4.1939973600633307e+00 5.4178742708736758e+00 4 -1 2
271 1 9.1390660789311262e+00 3.4846196104068943e+00 5.0424796780935166e+00 4 -1 2
188 2 1.2722360687937224e+01 1.2106521271213393e+00 8.7935841746067833e+00 -1 8 1
34 1 1.2735803637913490e+01 6.1808928990911016e-01 5.3171721454940535e+00 -2 -2 -3
305 2 1.0328020310051288e+01 2.7137214340918474e+00 5.9664918422247792e+00 1 4 0
35 2 1.2113836778100110e+01 1.3368279951080144e+00 5.5744416567131632e+00 -2 -2 -3
304 1 1.1206159155752440e+01 2.4356256146934205e+00 6.3480947150437546e+00 1 4 0
218 2 1.1779226220958551e+01 4.0483499517739645e+00 6.5537200923594519e+00 -1 0 -2
306 2 1.1055340348821231e+01 2.0503460918405461e+00 7.1860052891589730e+00 1 4 0
187 1 1.1746494167285530e+01 1.0479032465885250e+00 8.7373999882916795e+00 -1 8 1
425 2 1.3731480921008480e+01 2.7477607562335565e-01 6.8529521995655722e+00 2 -1 5
424 1 1.4437545474922382e+01 4.5608651282148993e-01 7.5267670571330401e+00 2 -1 5
418 1 1.4378012714445342e+01 4.4835315750230436e+00 8.5522071028519928e+00 3 6 4
420 2 1.4836849643383943e+01 3.7016024533365206e+00 8.2568762210295361e+00 3 6 4
553 1 1.6355526753163211e+01 2.6216467324507300e+00 7.4290894624822030e+00 -2 7 8
555 2 1.6814134056387680e+01 2.6278974229006988e+00 6.5664334513547518e+00 -2 7 8
554 2 1.7075651582310257e+01 2.8223694813219606e+00 8.0821259969995296e+00 -2 7 8
426 2 1.4793450845337746e+01 1.3402684757003429e+00 7.2675450615002140e+00 2 -1 5
174 2 1.8521786425337012e+00 6.0195297566777484e+00 7.8210948124670363e+00 1 -4 1
529 1 4.0345811549010584e+00 4.7225020937099549e+00 6.1298518081757907e+00 2 1 4
519 2 3.6159211999176541e+00 8.5373806382390107e+00 6.9103458804235185e+00 3 1 -6
172 1 2.3239125076284459e+00 5.2795681715993430e+00 8.2623982345170397e+00 1 -4 1
173 2 3.0548963241290150e+00 4.9776417413612872e+00 7.6087531488190496e+00 1 -4 1
518 2 2.6535891028407979e+00 8.4112230261706085e+00 8.1800677423084025e+00 3 1 -6
537 2 1.3820889847969537e+00 6.1414875137554930e+00 5.1350317235270087e+00 1 0 -4
535 1 1.0359809525974590e+00 6.7334910416472837e+00 5.8124041071600576e+00 1 0 -4
517 1 2.6731208442584484e+00 8.4116599519330961e+00 7.1839449859386884e+00 3 1 -6
536 2 1.8249011038536564e+00 7.2918431294527482e+00 6.0963894294580907e+00 1 0 -4
531 2 4.5966895397544887e+00 5.4904481454815421e+00 5.7043661696418910e+00 2 1 4
74 2 5.7538682210360053e+00 8.4785427450025654e+00 8.8340172387799996e+00 8 -2 -3
98 2 6.6879541297031473e+00 6.9558087983855614e+00 8.5513530150546906e+00 -2 1 3
161 2 5.2751292808734904e+00 7.5509353251240237e+00 5.6320490755098405e+00 1 8 6
160 1 5.3644779299947061e+00 6.6781916251421904e+00 5.1404929126005401e+00 1 8 6
97 1 5.8334006286917068e+00 7.0810325074526466e+00 8.1548161403041828e+00 -2 1 3
410 2 7.3715774049052509e+00 4.9399815280816624e+00 7.3783355078269404e+00 1 0 1
99 2 5.3023629222747726e+00 6.2919723234406870e+00 8.3916724219392798e+00 -2 1 3
409 1 8.0642435967454276e+00 5.3242611237441828e+00 6.8501083859598673e+00 1 0 1
347 2 8.0722792134875530e+00 6.6599800213307256e+00 5.9397852727225802e+00 -2 3 -1
346 1 8.3420325397411155e+00 7.4279694488773842e+00 5.4235240087345806e+00 -2 3 -1
411 2 8.8856542970909373e+00 5.1734353722434987e+00 7.3757979067821573e+00 1 0 1
542 2 1.1165992181137982e+01 6.5714126964453561e+00 8.6845759716259359e+00 2 3 6
543 2 1.0383132620441957e+01 7.9854508601580800e+00 8.7150538191001417e+00 2 3 6
19 1 1.0347774564244757e+01 4.8756829411854872e+00 8.9605667138766538e+00 -1 -2 3
217 1 1.2157845190819229e+01 4.8591224900747481e+00 6.9588124955264048e+00 -1 0 -2
287 2 1.3007539906475294e+01 7.5629715231854888e+00 7.9397631704379386e+00 4 -3 0
541 1 1.1179400753721785e+01 7.5033431631399603e+00 8.4515840887814395e+00 2 3 6
515 2 1.1725475780654980e+01 7.1578574877844350e+00 4.8465621331934763e+00 5 4 -3
348 2 9.2214505925807373e+00 7.7591949958074853e+00 5.7714180082416329e+00 -2 3 -1
20 2 1.0890545266118943e+01 4.7489533695040640e+00 8.0791652477810008e+00 -1 -2 3
219 2 1.2160384631188519e+01 5.5074668906838742e+00 6.2036426300632463e+00 -1 0 -2
336 2 1.1080846425419525e+01 8.1430128899211311e+00 6.6342711954392701e+00 -3 0 3
334 1 1.0756702979298540e+01 8.3866066771932086e+00 5.7106869243759117e+00 -3 0 3
116 2 1.6265677945757371e+01 6.3627254387652323e+00 6.2468332925605807e+00 2 -4 2
286 1 1.3713482607033516e+01 8.0567533283068844e+00 7.4569500568979921e+00 4 -3 0
464 2 1.6913427712544483e+01 8.1091257239664998e+00 4.9318573317209191e+00 0 1 3
117 2 1.5434801172572119e+01 5.6135422146844878e+00 7.2058826040112898e+00 2 -4 2
89 2 1.5209836171902181e+01 4.8785894483560357e+00 4.9773546608014083e+00 0 -2 5
288 2 1.4135234291033054e+01 7.3870897854681044e+00 6.8785970817654460e+00 4 -3 0
115 1 1.5402118313096848e+01 5.9507944946435529e+00 6.2890814940126294e+00 2 -4 2
419 2 1.3611949073544032e+01 4.6491825721886668e+00 8.0097464346735752e+00 3 6 4
39 2 1.6208211472862857e+01 7.3054274566736677e+00 8.8201879405612331e+00 -6 -8 -2
492 2 1.4932579180940811e+01 8.6802156007027857e+00 8.5110971645469320e+00 0 -1 -7
38 2 1.5671237360054052e+01 5.9242362215761419e+00 9.1039511450214103e+00 -6 -8 -2
487 1 2.6140445386655462e+00 3.0647735732857102e+00 1.2464432161451276e+01 -5 0 -6
123 2 4.1369904741596670e+00 3.1772282734148023e+00 9.9115211476508804e+00 -3 1 0
489 2 2.3202316131514511e+00 3.9456794707168652e+00 1.2116082472773970e+01 -5 0 -6
62 2 4.4159494732431792e+00 2.9156520410540452e+00 1.2510183384408608e+01 3 -1 3
121 1 3.7807803257029433e+00 2.3850373182013387e+00 9.4062989797176098e+00 -3 1 0
321 2 3.8371235188049835e+00 8.7585396747164290e-01 1.0396023817943288e+01 -6 3 -1
109 1 9.6760767487541710e-01 3.2294634669072759e+00 9.3928089859901789e+00 -1 -2 -3
122 2 2.8236284244973215e+00 2.6193676444947669e+00 9.6128817304637977e+00 -3 1 0
61 1 5.3382818225057891e+00 2.7007501794049551e+00 1.2302832197390972e+01 3 -1 3
63 2 5.4962132764366407e+00 1.9139142823731803e+00 1.2854434295121456e+01 3 -1 3
523 1 8.4958430620681185e+00 1.6887491089622906e+00 1.2213143498287062e+01 1 4 -3
443 2 6.5710087032208371e+00 3.8363401238925308e+00 1.2107995906884645e+01 -6 -1 -3
378 2 6.9200526212045723e+00 8.0589345037726623e-01 9.7114447961672017e+00 -6 -4 -3
525 2 7.8465405807722375e+00 1.1134310083413890e+00 1.1742269864311789e+01 1 4 -3
524 2 9.0700222897090725e+00 2.1211585993134996e+00 1.1570783969572712e+01 1 4 -3
18 2 1.2476994577474672e+01 2.9182319277369144e+00 1.3027925238306679e+01 5 -1 -6
375 2 1.0584243054108677e+01 1.9124815326766960e+00 9.5699503982396354e+00 1 -2 4
373 1 9.8230819260414020e+00 2.4671651450639214e+00 9.9003928827676013e+00 1 -2 4
374 2 9.0979110410830515e+00 2.3327985694922182e+00 9.2583887171231947e+00 1 -2 4
45 2 9.6425416702353388e+00 5.5713263646859601e-01 1.3134884671923958e+01 6 -2 3
21 2 1.0259551898524764e+01 3.9343098572580253e+00 9.3725771092107149e+00 -1 -2 3
111 2 1.7335706386500384e+01 3.4244154324796914e+00 1.0048686243039608e+01 -2 -2 -3
480 2 1.4234148083075672e+01 4.7778451777174280e-01 1.2492085189485572e+01 -1 -1 -2
567 2 1.3484838066974218e+01 2.2120576620018984e+00 1.1066172722030421e+01 -4 6 -1
565 1 1.3730485276639548e+01 2.9503739212914599e+00 1.1637979936428705e+01 -4 6 -1
566 2 1.3295645429738233e+01 3.7226620806186230e+00 1.1234691047140423e+01 -4 6 -1
303 2 1.7018210640729819e+01 3.2038268863251207e+00 1.2327743490464435e+01 1 -3 4
301 1 1.6626955936422313e+01 3.0425343918309431e+00 1.1465558984462897e+01 1 -3 4
302 2 1.5676589772876966e+01 3.1334506725322928e+00 1.1692854581967273e+01 1 -3 4
54 2 1.6791630205621402e+01 1.1566777103702663e+00 1.1495518576894636e+01 -2 0 1
52 1 1.7088772137140744e+01 2.6549800603461599e-01 1.1746205216305874e+01 -2 0 1
436 1 4.5054016881381962e+00 4.9056393389370188e+00 9.9264616060615261e+00 1 -2 -2
131 2 2.8155789602716399e+00 5.9903355892696242e+00 1.1964138596358882e+01 2 4 -8
132 2 1.2571062743849768e+00 6.2574204319606102e+00 1.1996952294778660e+01 2 4 -8
130 1 2.0009810267084305e+00 5.6862003406459216e+00 1.1573877707750269e+01 2 4 -8
86 2 4.4023465818778442e+00 7.4605301496169742e+00 1.1680094045711227e+01 -2 4 0
437 2 4.6076246273918509e+00 5.1526966852902918e+00 1.0875159272412924e+01 1 -2 -2
275 2 1.3581956965867206e+00 8.2142296848187080e+00 1.0202519573054158e+01 -4 -1 -3
356 2 4.3209579665882867e+00 5.6970313297685102e+00 1.3200988695285563e+01 2 -1 -6
438 2 3.6530619442145613e+00 5.3101984205968993e+00 9.5374066012483745e+00 1 -2 -2
276 2 2.9241166979027948e+00 8.6113232475812218e+00 1.0628852778803070e+01 -4 -1 -3
85 1 4.2660820684219631e+00 8.3719012658969199e+00 1.1319427341015082e+01 -2 4 0
444 2 7.6046727276120469e+00 4.8903741707379789e+00 1.2516565372456530e+01 -6 -1 -3
442 1 6.9893933967420594e+00 4.6537532405408877e+00 1.1808613865474623e+01 -6 -1 -3
87 2 4.8616895272608067e+00 8.4580444541711337e+00 1.0492883696038218e+01 -2 4 0
355 1 4.7405360025362899e+00 5.9551518010892535e+00 1.2329669693951933e+01 2 -1 -6
295 1 8.2593997143332114e+00 6.1914109354861315e+00 9.8915164689549524e+00 0 -3 0
357 2 5.6919413245438273e+00 5.6871267471078690e+00 1.2359742380891817e+01 2 -1 -6
297 2 7.7508972352407843e+00 5.4552782390497265e+00 1.0356891628987375e+01 0 -3 0
569 2 8.0510689819354120e+00 7.7636847951632406e+00 1.2479067200426377e+01 -1 -3 -6
570 2 8.5654890316359840e+00 7.5068532604385565e+00 1.0921593206454297e+01 -1 -3 -6
568 1 8.6731222555752705e+00 8.0541009586336543e+00 1.1772060969771443e+01 -1 -3 -6
296 2 9.1190903698829668e+00 5.8158605094480134e+00 9.5671957214876677e+00 0 -3 0
246 2 1.0416091182885216e+01 8.0253249326195473e+00 1.2258295453575959e+01 -2 -2 -1
244 1 1.1310408506900695e+01 8.0680331026058347e+00 1.2659691040946578e+01 -2 -2 -1
6 2 1.2748484244427706e+01 6.3535533510366928e+00 1.0674794933739834e+01 1 4 -3
4 1 1.3217513458664955e+01 5.5462264866371109e+00 1.0868682625356337e+01 1 4 -3
51 2 1.2306227663155168e+01 8.7383905988497510e+00 1.1371721465896856e+01 7 2 -4
76 1 1.6803860539944353e+01 7.3723388950803495e+00 1.1733960298551121e+01 -2 -3 -3
37 1 1.6478457747883034e+01 6.4361600327463657e+00 9.1146960812408242e+00 -6 -8 -2
77 2 1.6059621562101992e+01 6.7554824849009636e+00 1.2110170839506457e+01 -2 -3 -3
5 2 1.3478031440824891e+01 5.1841564908790980e+00 1.0014613052442547e+01 1 4 -3
78 2 1.6643331345751022e+01 7.0667334618945787e+00 1.0817397697177901e+01 -2 -3 -3
486 2 1.5521962053786362e+01 5.0465350635459778e+00 1.3081326258951577e+01 -4 1 -2
485 2 1.4313117482362157e+01 5.7397326750999955e+00 1.2392595541295382e+01 -4 1 -2
484 1 1.5068905578321369e+01 5.9022532247008312e+00 1.2992728391485388e+01 -4 1 -2
488 2 2.6256173418661524e+00 3.0132262516416191e+00 1.3422044408332983e+01 -5 0 -6
328 1 2.6446391946392280e+00 2.2339252033392887e+00 1.5378040163106151e+01 4 6 2
210 2 1.7704407396737645e+00 2.7776107061767297e+00 1.6510575411223922e+01 -3 2 1
330 2 3.6180739664905333e+00 2.1776333890517496e+00 1.5344181964890259e+01 4 6 2
329 2 2.1735741004599651e+00 1.4538565859819479e+00 1.4922949938965447e+01 4 6 2
413 2 4.0897629616856861e+00 4.3503600740428201e+00 1.5080719401453099e+01 -3 1 2
208 1 1.2518282983263345e+00 3.1324673141841251e+00 1.7313507809163852e+01 -3 2 1
128 2 7.6577043829066547e+00 2.2071928889098160e+00 1.3667087893876877e+01 -2 -2 0
267 2 6.0940309992283650e+00 2.6578364801995211e+00 1.5136078696375298e+01 -4 2 1
265 1 5.2322413712179046e+00 2.6426882451180322e+00 1.5721724729134340e+01 -4 2 1
266 2 5.4676990829458942e+00 3.0151083941800154e+00 1.6597966742228852e+01 -4 2 1
129 2 7.9283626060844421e+00 2.0009048672599405e+00 1.5223424473092834e+01 -2 -2 0
127 1 7.5841909576662685e+00 2.6251188228980027e+00 1.4559537271297600e+01 -2 -2 0
15 2 8.2235244570755199e+00 4.3022261903208223e+00 1.4441183564035416e+01 1 1 3
262 1 8.9419819997380685e+00 4.1153796877780779e-01 1.6116861822183211e+01 -6 2 0
43 1 1.0366396049408300e+01 4.7688907128323332e-01 1.3841643572756174e+01 6 -2 3
23 2 1.0728395849070786e+01 3.3704226678143399e+00 1.7255351854658901e+01 2 -7 -3
16 1 1.1980994860107558e+01 2.9569386978681562e+00 1.3863858825709128e+01 5 -1 -6
44 2 1.0853583254984875e+01 1.3288815036805226e+00 1.3812891252749679e+01 6 -2 3
263 2 9.4240680376870554e+00 9.4009272469013505e-01 1.6741875103039792e+01 -6 2 0
17 2 1.1652378911918621e+01 3.8928316215878072e+00 1.3859025556308508e+01 5 -1 -6
264 2 9.5146741358888125e+00 3.0107340131391780e-01 1.5378021705080403e+01 -6 2 0
59 2 1.7099261667700027e+01 4.4017188134836616e+00 1.7445429198927727e+01 -1 -3 2
66 2 1.7270989931269163e+01 4.3495182743171199e+00 1.4555807504989840e+01 0 -3 0
478 1 1.4164274430940770e+01 4.5898174080699927e-01 1.3501674587603972e+01 -1 -1 -2
64 1 1.6702509742331380e+01 3.7675868573158757e+00 1.4072430307771235e+01 0 -3 0
65 2 1.5955917725932155e+01 3.4789813193374770e+00 1.4619775637607271e+01 0 -3 0
225 2 1.3308325366500679e+01 2.8991513790805832e+00 1.4930718385573645e+01 1 4 -4
92 2 1.6122821460539043e+01 1.0216737922326358e+00 1.6530991394967280e+01 -1 -2 -2
479 2 1.3984337817894334e+01 1.3975675837834032e+00 1.3860091512625988e+01 -1 -1 -2
223 1 1.4234128842415736e+01 2.8863861162605446e+00 1.5278888273840391e+01 1 4 -4
224 2 1.4255907103521128e+01 2.8336339782075548e+00 1.6269559112445307e+01 1 4 -4
91 1 1.6271019829572289e+01 1.3950748922612251e+00 1.7414029221358721e+01 -1 -2 -2
209 2 1.7476162796529451e+01 2.5719402501174713e+00 1.7296257724587811e+01 -4 2 1
156 2 1.1881188225922195e+00 6.6984129932480672e+00 1.4832455760340302e+01 -4 -4 2
414 2 2.7719584349090214e+00 5.3464548733505532e+00 1.5086298651798034e+01 -3 1 2
412 1 3.7469839052442686e+00 5.2171583269335251e+00 1.4765453068835328e+01 -3 1 2
154 1 1.2435132261469997e+00 5.6997657221207394e+00 1.5158376821558006e+01 -4 -4 2
403 1 9.6122842396598907e-01 8.1940866983398095e+00 1.4731657168986263e+01 4 6 0
155 2 7.9617148087492606e-01 5.7368474348287926e+00 1.5990557484011548e+01 -4 -4 2
138 2 4.4520797270007026e+00 6.7651269369761460e+00 1.5535048325527608e+01 4 -6 -1
404 2 9.2141583237823932e-01 8.6797368394392223e+00 1.3891392650724793e+01 4 6 0
459 2 8.1146150969955233e+00 5.9173173952754849e+00 1.7160653364204361e+01 6 1 -3
285 2 5.7640423885374616e+00 7.5084072631765002e+00 1.7401064553437230e+01 3 -5 -1
457 1 8.8592948726174559e+00 6.4926566297730499e+00 1.7248745712560400e+01 6 1 -3
13 1 8.5750029919809077e+00 5.1170181844611546e+00 1.4029626132955993e+01 1 1 3
137 2 4.9519259491111978e+00 8.4252648263054866e+00 1.5495956279190091e+01 4 -6 -1
399 2 7.9510715020782001e+00 8.0178280578487566e+00 1.4750828840030962e+01 3 1 2
397 1 7.3318896607151860e+00 7.3816363574341102e+00 1.4329156236125556e+01 3 1 2
136 1 5.0838105944443264e+00 7.4624923542487789e+00 1.5785565328062484e+01 4 -6 -1
14 2 7.9986214302015517e+00 5.9115804758161179e+00 1.4303340189466256e+01 1 1 3
398 2 6.5981746881325076e+00 7.1547559415253348e+00 1.4922489040364701e+01 3 1 2
100 1 6.6560072791326057e+00 4.6729909693474019e+00 1.7411077698890271e+01 -2 2 4
460 1 1.2948198233846004e+01 6.2575476990662828e+00 1.7597032058621711e+01 -1 8 2
533 2 1.1789566028142474e+01 6.4792809020730129e+00 1.3532898056926362e+01 4 4 5
534 2 1.0477405789584626e+01 5.6052194748388544e+00 1.3689157554508371e+01 4 4 5
147 2 1.1166316294153024e+01 5.1785864329064246e+00 1.5595561764176770e+01 4 3 1
462 2 1.2061203509079778e+01 5.8492701794539190e+00 1.7385560435282319e+01 -1 8 2
146 2 1.0079001073176851e+01 5.5320028300976709e+00 1.6650793370786467e+01 4 3 1
245 2 1.1312947998540078e+01 8.6525812929706039e+00 1.3518880670560472e+01 -2 -2 -1
145 1 1.0915101259459473e+01 4.9936545804228434e+00 1.6477632524001606e+01 4 3 1
532 1 1.1438187123638599e+01 5.6104933139827367e+00 1.3874260058784184e+01 4 4 5
461 2 1.3485870544779806e+01 6.2668036927038795e+00 1.6769346499159568e+01 -1 8 2
220 1 1.4796360758943367e+01 6.3787367520042775e+00 1.5744605116751581e+01 0 2 3
58 1 1.6531297144299565e+01 5.1971247705444474e+00 1.7297888911289302e+01 -1 -3 2
221 2 1.4610991804368400e+01 6.0287809994749235e+00 1.4833850173620494e+01 0 2 3
222 2 1.5501952537112846e+01 5.8497905652450877e+00 1.6155098569859412e+01 0 2 3
149 2 1.4732278624945426e+01 8.1090341826006416e+00 1.5612309851505374e+01 -2 -5 -4
269 2 3.2964750196218251e+00 1.0667543354955468e+01 2.0455616188336925e+00 9 4 9
322 1 2.4811026230787547e+00 1.2191231838000428e+01 2.4663222558767712e+00 2 4 -1
268 1 3.4339512377293140e+00 9.9297201421571444e+00 1.4036101589522216e+00 9 4 9
270 2 4.2302377785927234e+00 1.0218482503674128e+01 9.0192119258096670e-01 9 4 9
323 2 1.5035121840051966e+00 1.2001460051332158e+01 2.1708984960869904e+00 2 4 -1
83 2 2.4951110719430529e+00 8.8623113902665498e+00 2.5390561250129196e+00 1 -1 3
324 2 2.5441523558608439e+00 1.2355658408361540e+01 3.3932494152120780e+00 2 4 -1
84 2 1.9327978788893190e+00 8.9350552822563714e+00 3.9844384413028449e+00 1 -1 3
278 2 4.0011139076788282e+00 1.2840765542459669e+01 1.6032154662575626e+00 -1 -1 4
451 1 8.1350456922153942e+00 9.8583514292839514e+00 8.6533947724027105e-01 -4 12 -1
345 2 5.9311346173696355e+00 1.2065774903241383e+01 2.9948930835285519e+00 2 1 0
452 2 7.8164175829084828e+00 1.0757480897397418e+01 8.9187323522593354e-01 -4 12 -1
343 1 6.6014892013861495e+00 1.2008714095589943e+01 3.6885255529685073e+00 2 1 0
344 2 7.4533015837557368e+00 1.2005507168446943e+01 3.1935607601320624e+00 2 1 0
190 1 8.1654639105570084e+00 1.2549630686499061e+01 1.4038615825530667e+00 -1 -3 -6
453 2 7.3969236901450355e+00 9.2258934583263752e+00 7.6651249467099725e-01 -4 12 -1
191 2 9.1695089878910423e+00 1.2605185839982017e+01 1.4885572465195158e+00 -1 -3 -6
69 2 9.5591228647241753e+00 9.5673974063945479e+00 1.9909769138632065e+00 -5 -2 -3
67 1 1.0299718435446090e+01 9.3009488660056796e+00 2.5811759800519467e+00 -5 -2 -3
326 2 1.1074326999743462e+01 1.0273181902973203e+01 3.9311728852297216e+00 -2 -3 6
564 2 1.1706931952271141e+01 1.2458205476298167e+01 3.9959325759543276e+00 -7 -3 1
68 2 1.1188933565312078e+01 9.2555696973163837e+00 2.1347990108997372e+00 -5 -2 -3
512 2 1.3008864432902195e+01 1.0368984993648905e+01 9.4647642826909117e-01 0 1 -6
511 1 1.3055498276091503e+01 1.1317885030173944e+01 7.4076938125873926e-01 0 1 -6
325 1 1.1456571915549510e+01 1.0770671133503606e+01 4.7100645128851069e+00 -2 -3 6
72 2 1.1233894232559580e+01 1.2438054684534281e+01 6.2104702388099076e-01 2 4 -4
48 2 1.6681074279066806e+01 1.0944873512107421e+01 1.7161107300981322e+00 3 0 0
46 1 1.6901652684558869e+01 1.1766601933841637e+01 2.2259294527838507e+00 3 0 0
47 2 1.6164832343417316e+01 1.2363588105831846e+01 2.0200554613638246e+00 3 0 0
455 2 1.6582850361438815e+01 1.1922901541967661e+01 3.9319350993238849e+00 -2 -1 -1
402 2 1.3936172692777529e+01 1.2266284183276809e+01 1.5784894741698530e+00 -3 4 -4
400 1 1.4463026420692660e+01 1.2979163080240046e+01 2.0816837590335902e+00 -3 4 -4
454 1 1.6355782135292209e+01 1.2324739801593156e+01 4.8094420165305714e+00 -2 -1 -1
313 1 1.6328545378646769e+01 9.4948753737152334e+00 6.4092082067229439e-01 -2 2 -2
279 2 4.6433043572976294e+00 1.3966380814922154e+01 7.5477994845901353e-01 -1 -1 4
470 2 1.1786436072533446e+00 1.4349011581857901e+01 1.5950234740750151e+00 -6 -1 -2
317 2 3.7743585451623076e+00 1.5623702073422784e+01 2.2549781347338618e+00 3 2 7
559 1 4.1707761882373937e+00 1.4734776455685266e+01 3.8345961185314086e+00 0 -6 -1
448 1 1.0661368626124317e+00 1.5136413258630467e+01 3.3927510777136978e+00 2 0 -3
450 2 5.9939873655109555e-01 1.6004428556913705e+01 3.4727592279485866e+00 2 0 -3
561 2 3.3843065476382552e+00 1.4506749393351560e+01 4.3602567886844987e+00 0 -6 -1
316 1 3.6039076963188763e+00 1.6010989540569881e+01 1.3834447807471451e+00 3 2 7
449 2 5.6856291229372669e-01 1.4541679135156324e+01 3.9231256609575667e+00 2 0 -3
560 2 4.5455324328042650e+00 1.5444727739041273e+01 4.3551408836943128e+00 0 -6 -1
469 1 1.4225079764332691e+00 1.4510820990305643e+01 6.5469989348713409e-01 -6 -1 -2
318 2 2.9321783699892525e+00 1.5392104177195906e+01 9.2953846373715376e-01 3 2 7
180 2 8.0396631996999552e+00 1.7135339751892701e+01 8.7011395357886423e-01 -2 5 1
178 1 7.7360544668853359e+00 1.7050030081430862e+01 1.7636393516279931e+00 -2 5 1
277 1 4.8620059626655836e+00 1.3175179441890579e+01 1.2638967033012714e+00 -1 -1 4
366 2 7.1336687219248782e+00 1.3858361944420835e+01 2.2864185709077898e+00 1 4 -3
364 1 6.9825576284138346e+00 1.4728490793942100e+01 2.7059255522497385e+00 1 4 -3
179 2 7.5078576016700680e+00 1.6138186787074225e+01 1.9754725281886558e+00 -2 5 1
527 2 7.8178889280526587e+00 1.4387424752584600e+01 4.2940439796770882e+00 -5 -7 0
365 2 6.0702286723052561e+00 1.4758478703230271e+01 2.9718195085464423e+00 1 4 -3
563 2 1.2591641005204997e+01 1.3611625949771364e+01 3.4366504558879361e+00 -7 -3 1
70 1 1.0773072927245009e+01 1.3167502061712080e+01 1.0539706065461170e+00 2 4 -4
71 2 1.1109797609025437e+01 1.3206171581557900e+01 2.0083602207918201e+00 2 4 -4
562 1 1.1665037155207351e+01 1.3336871718004746e+01 3.4947021789263375e+00 -7 -3 1
499 1 1.0734380891792437e+01 1.5992368887981346e+01 4.1416505796965239e+00 0 0 -1
500 2 1.1023118976542701e+01 1.5043857491479752e+01 4.1443903473742711e+00 0 0 -1
501 2 9.8524412511628352e+00 1.6008115395008314e+01 4.4565759843403656e+00 0 0 -1
108 2 1.2363380802486784e+01 1.6585495450182549e+01 1.2792681339493179e+00 -4 -1 3
107 2 1.1796005690630391e+01 1.6918313035353535e+01 2.7086963772651882e+00 -4 -1 3
289 1 1.5310347342928130e+01 1.4683142450689051e+01 4.8096656953198549e+00 3 -2 -4
291 2 1.5577228754391024e+01 1.3724631008819621e+01 4.7762081951365811e+00 3 -2 -4
96 2 1.5408887722916131e+01 1.6586816303239452e+01 2.5831182223702847e+00 -3 1 -5
94 1 1.4683446833962849e+01 1.5947155780944890e+01 2.5612161309695556e+00 -3 1 -5
401 2 1.4531209196366143e+01 1.3817350744588413e+01 1.6008743537004013e+00 -3 4 -4
95 2 1.3872109601975861e+01 1.6421599028441399e+01 2.2839228938713156e+00 -3 1 -5
290 2 1.5196187817292163e+01 1.4951502708587514e+01 3.8441418607424303e+00 3 -2 -4
505 1 2.6281446527872738e+00 1.2843244139433788e+01 5.4659750516170167e+00 -1 -2 4
170 2 2.1588202779774539e+00 1.1169673444263806e+01 5.2583003966435768e+00 2 3 -4
169 1 2.5084458495986386e+00 1.0222977169029539e+01 5.1600910973207883e+00 2 3 -4
171 2 2.2939651110518806e+00 9.8648304309634796e+00 6.0572188683440586e+00 2 3 -4
342 2 4.1419210037766625e+00 9.7689026177734295e+00 5.5433080415034821e+00 1 1 3
143 2 7.4816741394527886e-01 1.1063810307078045e+01 7.6688873529848687e+00 -1 -3 2
493 1 4.2397775289264983e+00 1.1255034739502848e+01 8.2394849294449326e+00 2 -3 3
506 2 3.5811902253873749e+00 1.2944899802873215e+01 5.7090023973082635e+00 -1 -2 4
182 2 2.4151628018753133e+00 1.1566315431875946e+01 8.7948923464836977e+00 -8 -8 -2