LAMMPS data file via write_data, version 8 Apr 2021, timestep = 1757000

1008 atoms
2 atom types

-0.006704662056579653 20.679231319286377 xlo xhi
-0.006704662056579653 20.679231319286377 ylo yhi
-0.006704662056579653 20.679231319286377 zlo zhi
0 0 0 xy xz yz

Masses

1 16
2 2

Atoms # atomic

103 1 8.179272060259105 4.678728926996513 6.000742207148554 0 -1 -1
206 2 15.747229373116932 2.4385691167858377 5.703026506240795 -1 -2 1
564 2 11.921534462373616 2.797392470496907 6.138215114553181 -1 3 -2
152 2 16.058340457249155 3.6474630342674406 7.796302604715994 2 1 2
114 2 8.40412477480866 8.374450036556789 1.7431728578922223 0 -1 2
579 2 10.412825547023347 8.924941812798334 2.1724227498727955 0 -1 1
244 1 7.596189012979745 1.091331232484515 9.056271112270148 1 2 0
276 2 9.525173519361978 6.910183467269152 4.341109059595577 0 -3 -1
494 2 6.552102488620184 0.5233954240421125 3.7279305792639925 1 3 1
406 1 20.36934605507528 7.6287273762565535 2.108591038013152 -1 3 2
733 1 5.069507677859908 8.859135609326797 2.0155810643145724 1 -1 0
147 2 18.52826515059888 1.196545609681582 7.781640336487025 4 1 0
515 2 13.189057903043814 3.1496670219236087 9.726653992513825 0 2 1
732 2 5.600096685283329 5.528526478620079 1.592183076699672 2 -1 1
193 1 0.982034369362234 4.604609492115616 2.237978537038801 1 0 1
692 2 3.7215937188595305 6.9036841138242595 5.4438839000964565 1 -2 0
194 2 0.5486356079341324 4.7870687718824225 3.1354878657230825 2 0 1
947 2 3.379848940399887 5.418497797306747 10.046346317263456 3 2 2
384 2 17.155717255297553 1.1700595533093707 2.1284066422468206 -1 -1 0
368 2 1.3104972621584283 10.00362803248428 3.2753427028497297 1 2 0
151 1 15.290306693647924 3.608042550282752 7.113053607110152 2 1 2
757 1 19.110451596828515 6.711307962705935 4.3783237266290636 -4 4 -2
73 1 15.1524390569788 7.117245763238157 5.105304045792976 4 -1 -2
408 2 19.806500267408666 7.561855217747225 2.8907673008347903 -1 3 2
274 1 10.467850792827456 7.20214378740424 4.428977338984719 0 -3 -1
370 1 11.83612410489716 8.7145789268958 9.699548041510953 0 -2 1
32 2 3.0250441096749943 10.228306537108347 9.79079869701804 -2 3 -1
910 1 5.813879823408269 8.627567358895961 4.611176492295132 0 0 1
75 2 14.667888724324238 6.617672035313061 5.757197972419408 4 -1 -2
246 2 6.784700833186441 1.6157591292636972 9.105308100896428 1 2 1
576 2 13.226287939687635 0.2739782031521683 5.853090840385121 -1 -1 1
301 1 7.77597082110374 6.901159451315218 4.023587694928243 1 -2 -1
394 1 7.186933101546867 0.7523823713305925 5.410261252250281 -2 1 0
542 2 11.390360620248048 5.550585994043341 2.3097084047070813 -3 -1 -1
52 1 18.210107978210452 1.0922539421495 6.21973692645959 1 1 2
759 2 18.86911139731019 7.258179654075194 5.130352945840117 -4 4 -2
519 2 9.080227028798587 5.684871446579966 8.804502977336625 -1 -2 -1
149 2 18.06327536926077 3.412120332077888 8.577620349632685 1 1 -1
225 2 7.671429839417997 9.217838370498782 8.280824585252825 -1 2 0
431 2 13.503936753008288 8.075512477218084 4.1238370641446735 -4 -1 1
654 2 2.2417155440932737 7.862247198405044 8.49078938985042 1 0 0
322 1 8.025524562772734 3.5811983054439542 3.1402603137236005 0 -1 -2
788 2 6.2906543837598665 4.515461278407349 3.1104113154708997 1 1 -3
911 2 6.214786148010009 9.47814493457665 4.749976240883847 0 0 1
144 2 18.65700382155714 8.211451618907933 7.717248422806361 -1 -1 -3
260 2 3.6627719339055576 2.1084599852206 5.973773949642727 -1 0 -2
457 1 14.811823443293319 6.099245389532751 0.9224587013934592 -2 1 -1
410 2 12.220462472103353 8.718122465177482 7.670580569848977 1 1 -2
739 1 12.355715554348562 1.2469892329200964 0.9896220935045783 -2 0 1
555 2 0.06461205859226381 5.305111116259146 10.311428406736333 1 -1 -2
275 2 10.328114995926734 8.167230634103927 4.538127970899847 0 -3 -1
104 2 7.288580548346876 4.648409949298274 6.3147322065914695 0 -1 -1
691 1 4.135569209611092 6.049927823300935 5.4687080983949095 1 -2 0
381 2 20.38810562826347 3.79454631678076 1.5352267183146435 2 -2 0
943 1 19.956628764476996 9.782796599205376 0.21281887076665199 1 -1 -1
390 2 8.913963690136331 3.2656797496395678 6.915421329236964 1 2 -1
578 2 11.931565121003386 9.039875764575113 2.7088930528993473 0 -1 1
761 2 17.940295774794922 4.427265673812316 1.3985101516802043 0 0 0
535 1 4.021550269205924 7.027741167645506 9.372371469122907 0 -3 3
261 2 2.3439463940953424 1.4373294881653353 5.3589238256153315 -1 0 -2
951 2 3.5169475638099614 9.067700654840284 5.539743454381553 -2 0 -1
99 2 11.028731522834958 6.4558578128360855 6.131735409968195 3 -3 1
511 1 14.254748182746944 9.903912089645527 10.055344962668189 2 3 0
912 2 5.393059032678147 8.348640395861116 5.4403809601210344 0 0 1
74 2 15.524236549903822 6.52371232912167 4.4485213085805775 4 -1 -2
762 2 16.436907247281745 4.967123154719144 1.3461532349227776 0 0 0
867 2 19.318491656119093 0.367320225085405 1.1003357596672525 0 2 4
865 1 19.721678849291354 0.29514975804469984 1.9836842621355562 0 2 4
873 2 0.4400977576020175 1.6693276555567662 7.495614977672559 -1 2 0
259 1 2.7229466823810187 2.2919630867145426 5.635186222636228 -1 0 -2
768 2 20.675628962808997 1.3585779663884345 4.26017252959658 1 0 2
860 2 16.5919186936655 9.095877588432904 1.3811739386070923 2 1 1
372 2 11.903766616936235 7.842356770839538 10.155884203259365 0 -2 1
840 2 18.750560603619416 2.701688921579445 3.490426409089678 3 3 2
489 2 5.376126460303839 2.8599316714723697 7.0022224600639795 0 -2 -1
465 2 6.698179218050088 5.4052031789444435 10.318751875689333 2 0 -2
581 2 13.753741934633856 2.730699960283417 7.502989817778468 -2 0 0
871 1 0.8499293262176303 2.5245317778906977 7.688879373503811 -1 2 0
442 1 1.8643745403903158 1.7560985915068277 10.082894951850117 3 0 -1
148 1 17.184499137477136 3.6176309274758176 8.932315367957145 1 1 -1
620 2 10.800569005032067 0.9329559164102394 1.792496033755051 -1 1 -1
279 2 9.275428474336316 4.440621361414177 2.2378486509799957 3 1 -1
310 1 19.45572414450658 4.182796470124217 7.544899713498827 -1 0 0
242 2 11.85091550452212 8.390310354655341 0.43476665037013745 -1 -2 2
380 2 19.566264588695933 2.570029879431215 1.425977527931295 2 -2 0
300 2 16.88235923190794 7.797230459163483 9.21449032006771 3 -2 0
597 2 16.836280898062796 4.826440557571962 3.267532106047459 -1 0 -1
53 2 18.880076982555885 1.6082096464716964 5.625180576820839 1 1 2
407 2 20.123377698726937 8.432282890890844 1.6347462183372086 -1 3 2
389 2 9.69412499276023 1.9660185055764559 7.02833476552773 1 2 -1
290 2 10.870179018861704 10.253305396545244 9.4330017167948 3 2 1
191 2 17.72523914717738 8.825326433813553 6.160553570015581 0 -2 0
371 2 12.659160658496813 9.207876348299983 9.974206535311133 0 -2 1
79 1 3.6997367481983403 1.2675274240904213 0.9901183917459817 -2 -1 -1
657 2 0.5567672903361505 9.86114330251462 5.110709767669737 4 -1 2
498 2 20.340436688861228 5.699106230490366 4.701521158486708 -2 -1 0
483 2 6.274423109481922 4.80215404589021 8.192258994079017 1 0 -1
839 2 19.80786614064888 3.5131776225703226 4.26763385317991 3 3 2
745 1 4.241059785572864 0.5052164856248038 9.095209013955444 1 0 0
452 2 2.5063887089186636 3.87904426413979 2.7223846677287873 -4 -1 -1
751 1 9.827534979192862 4.315071604544441 9.621761618136842 -3 -2 2
702 2 6.542189790903773 2.7445649783295862 0.6208295347752882 -2 2 0
760 1 17.350173741806096 5.1716000046852155 1.5918838083630868 0 0 0
673 1 5.217108605742608 8.418046450667234 7.37014785468345 1 2 2
195 2 1.2344188422245126 5.490943411427871 1.9672078283229522 1 0 1
207 2 15.235673293390667 1.0860259222736994 5.2992273951330775 -1 -2 1
596 2 15.731052933115912 4.581250731588469 4.178424430454357 -1 0 -1
669 2 13.196477212027157 4.920042799992535 3.41433072653723 0 2 0
482 2 5.241800834229022 5.433923023554004 7.129906919998547 1 0 -1
674 2 6.034905420109125 8.436993479837634 7.901497341875828 1 2 2
376 1 19.955846099842258 6.554292510503996 9.247550884291025 1 1 1
838 1 19.416426849400313 2.619420479516303 4.147344053582893 3 3 2
142 1 19.027438564307335 8.23612552769565 6.785382248830205 -1 -1 -3
803 2 9.782192667268781 9.80364918257763 5.6021896878081225 -3 1 -2
113 2 7.827527362086463 9.376424100366316 2.810771274590615 0 -1 2
120 2 15.458242724604306 2.5311154321793303 1.8491949636106362 -1 0 -3
459 2 15.53902881950445 6.758250986496233 0.9439010789886618 -2 1 -1
735 2 5.337354158144408 8.651597996435587 2.9785550459775694 1 -1 0
506 2 20.439470637352777 9.657390684962955 9.957620732971444 -1 3 0
950 2 2.1811637751975645 8.539146898640842 4.721078547767193 -2 0 -1
653 2 1.718119227641067 8.090203756740259 7.106530857306821 1 0 0
54 2 17.354631005806755 1.3581563351825385 5.844396731376243 1 1 2
146 2 18.080171299271253 0.441126861156957 9.004069736421513 4 1 0
324 2 7.442314207210159 3.0299766988575434 2.5644363618118224 0 -1 -2
752 2 9.668956598038646 3.44746236246595 9.139524636398905 -3 -2 2
667 1 13.940742956794207 4.324449356422429 3.6277031810697724 0 2 0
517 1 9.040901003371921 6.426279389097799 8.190823998503273 -1 -2 -1
143 2 19.520630704721448 9.075066980032641 6.679855288369535 -1 -1 -3
97 1 11.349955523322109 5.697115316754234 6.603442114017542 3 -3 0
409 1 12.08359232554215 9.021683559542117 6.725541221481125 1 1 -2
881 2 3.6110952905245735 7.994427504485605 2.1188320341893245 -2 -1 -1
98 2 10.87019703652798 5.699573148638494 7.492906889386116 3 -3 0
451 1 3.343243770307656 3.5002442818686137 3.0563934913137616 -4 -1 -1
312 2 19.052987646203192 4.338717922200266 6.663070744143368 -1 0 0
311 2 20.145668094063193 3.5393382753264673 7.568095863564095 -1 0 0
383 2 16.8441291873827 1.8945903855165704 3.4698804104275056 -1 -1 0
487 1 5.014806256298478 1.9773857784118012 6.812511407066435 1 -2 -1
444 2 2.6274001370978706 1.3582717595208584 9.623077522708545 3 0 -1
325 1 17.146247086927794 7.7055858105294535 0.5189552110288972 -1 0 0
20 2 14.384471534263161 6.430186163377883 7.843952857043691 -4 1 -2
395 2 7.966485749852469 1.2714194558380127 5.230071587252869 -2 1 0
882 2 2.1724960675462452 7.670577130246893 2.138228528694659 -2 -1 -1
701 2 6.085908706585173 1.739444919392435 1.8379261200998027 -2 2 0
81 2 3.8883827385345646 2.023181601859951 1.489187581985504 -2 -1 -1
949 1 2.8765080895142714 8.300000299290708 5.405721389322347 -2 0 -1
668 2 13.675469692205047 3.8443091079467235 4.4493164482630005 0 2 0
162 2 19.29132345672714 1.7873717581808066 10.130256393074674 2 0 0
562 1 11.762486207555932 3.3094084179456815 5.310697485494981 -1 3 -2
789 2 4.69466548099271 4.374754516214603 3.137230186008842 1 1 -3
299 2 18.459381604306696 7.54872010851427 9.568044057637632 3 -2 0
302 2 7.296065008026169 6.567342797569963 3.2712949115179044 1 -2 -1
802 1 9.696714572513958 9.802113490577172 4.62269581574561 -3 1 -2
385 1 15.845537691524962 1.494475396658042 10.277162553473868 0 4 0
303 2 7.1402302772384125 7.552613277976929 4.442259208993674 0 -2 -1
443 2 1.4241655757569434 2.14392631625396 9.277622194422907 3 0 -1
323 2 8.53482614618558 3.084677898848264 3.8114269620588814 0 -1 -2
432 2 12.617991172405612 8.917955120877325 5.181654138745688 -4 -1 1
382 1 17.148579537380435 2.0648958990564967 2.5725488981253135 -1 -1 0
693 2 4.6581409629040875 5.839171925341545 4.679701888231553 1 -2 0
513 2 14.81320459059935 10.139413989690752 9.297581112063904 2 3 0
462 2 10.221538361656913 2.506362125026568 4.860875495339475 -1 0 1
21 2 13.012915168348615 5.786715265751642 7.266332292078988 -4 1 -2
563 2 11.514997257229723 4.1654846577338365 5.645584520634272 -1 3 -2
36 2 14.610014294344314 7.844964103902647 9.303966599812933 -2 3 -1
34 1 15.22098468778638 7.2146796008999505 8.953054926270132 -2 3 -1
814 1 11.396232454179424 0.43944398661396533 6.508985311580338 1 -2 0
458 2 14.27552849878536 6.22159699414072 1.7678727876691485 -2 1 -1
741 2 12.672997639908102 0.4071106327430968 0.6623450876978619 -2 0 1
496 1 0.16856444426157705 4.819122264902659 4.65134936696106 -1 -1 -1
731 2 5.074538222335973 6.170263883794677 0.08834855632265659 2 -1 1
493 1 6.084042419374183 0.2834049861368097 2.8673902937320217 1 3 1
787 1 5.4389335074462055 5.0376957039398755 3.259297604785204 1 1 -3
190 1 16.91178881713756 9.323999575889616 5.698937643417752 0 -2 0
619 1 9.95206975112328 0.9005545940157943 2.2738776329838086 -1 1 -1
1005 2 6.2341834211362155 9.458507679775908 0.5662385447740714 3 -1 1
112 1 8.47554355679921 9.267799629164866 2.1314524373058013 0 -1 2
488 2 5.758963761638526 1.555175005109314 6.297719933595517 1 -2 -1
635 2 2.000320048587964 4.610260417286831 7.2991829446564145 0 1 3
946 1 3.068464984611285 4.511731127862858 10.170195352355446 3 2 2
634 1 1.6147990819005795 5.342802885666461 6.78546637665762 0 1 3
118 1 14.520216507866294 2.7319334264918087 1.5994155627260855 -1 0 -3
326 2 17.597956882337513 6.92873749362852 0.9872898462155025 -1 0 0
518 2 8.671562853483284 5.967789725040761 7.424841328029694 -1 -2 -1
698 2 10.70102610065086 3.7774177489811827 0.39127021356241004 -1 1 0
388 1 9.142182314716278 2.5119072990852027 7.5622145409698565 1 2 -1
740 2 13.117390906695773 1.650580986504417 1.4739325223083009 -2 0 1
298 1 17.80142972327844 8.208121560820137 9.28743231303409 3 -2 0
153 2 14.91386399928449 4.550140903962875 6.97668563926455 1 1 2
80 2 3.3032930457797214 0.5362615412007546 1.4988200536241787 -2 -1 -1
119 2 14.249715168377234 3.384759063566202 2.3167648791247433 -1 0 -3
758 2 18.288031357938895 6.2333004607334255 4.205938662475694 -4 4 -2
19 1 13.95383340523752 5.897380185163527 7.136132945908815 -4 1 -2
582 2 12.885073069564227 1.43635464540809 7.930361308465461 -2 0 0
309 2 16.163350049746555 10.129592168340647 7.012139249063925 0 -1 0
507 2 0.32281410265819854 9.47476336309836 8.53176598940532 0 3 0
205 1 15.90069222894182 1.7825370514499996 4.978890969340437 -1 -2 1
700 1 6.175945645297993 2.6725187937427757 1.5203212210718795 -2 2 0
369 2 0.7103519068682623 8.499855501558038 3.0331353687441465 1 2 0
192 2 16.228367995611393 8.625898175132976 5.575107639292265 0 -2 0
224 2 7.780163417850172 7.6889079271206775 8.638251654916118 -1 2 0
453 2 3.1285257080497106 3.3085896796176217 4.005221240312476 -4 -1 -1
652 1 1.4447855308213784 8.080619769775707 7.998685076791629 1 0 0
481 1 5.935634403737991 4.712830434067437 7.243350053503824 1 0 -1
430 1 12.950016296850425 8.870664542459531 4.236144888840388 -4 -1 1
145 1 18.786793727557747 1.0360299209473842 8.740182520791071 4 1 0
464 2 6.225532546104513 3.945817443954266 9.950612893926866 2 0 -2
872 2 1.5324674532657439 2.534100379383854 7.0323739581184235 -1 2 0
377 2 20.668523363161054 7.144595280439654 8.89086939284358 1 1 1
771 2 4.784106692139743 1.835214649369941 10.182263697759652 3 0 0
277 1 9.936445799867451 4.865682356278295 1.657508169570963 3 1 -1
734 2 4.9501079829372845 9.834936449016741 2.0647925335508583 1 -1 0
278 2 9.41425294069868 5.618429440026726 1.346956236443919 3 1 -1
541 1 12.110374691569541 6.013834448080514 2.8133775953601377 -3 -1 -1
636 2 2.5146738490308302 5.517984259304351 6.3493077422776 0 1 3
880 1 2.9817456128202657 7.217368147525886 2.123778090207337 -2 -1 -1
460 1 9.464256805707826 2.027039042308994 4.568523255723042 -1 0 1
196 1 8.181494881104708 7.052397357016692 0.4555647397016706 -1 1 1
536 2 4.147380138246711 7.420210398592355 10.277663752813874 0 -3 3
461 2 9.73253660775969 1.592940229340152 3.714799041315669 -1 0 1
497 2 0.7219670331708867 4.789474214135974 5.451221720469435 -1 -1 -1
767 2 0.9111002352842066 0.20140766395454016 3.7255676357358603 2 0 2
537 2 4.502040483556771 7.5780995170602665 8.704653870788942 0 -3 3
543 2 11.561682597951279 6.580821304956928 3.4410864368101177 -3 -1 -1
105 2 8.189864538716007 5.011236368127094 5.133967919391999 0 -1 -1
595 1 16.629183438932607 4.946518338852728 4.1983635596458635 -1 0 -1
605 2 11.73532989212384 5.2194374052698445 10.056754441035606 0 -1 2
580 1 12.822220828706289 2.359938229941222 7.679190216505484 -2 0 0
675 2 4.810076270728389 9.260108123265786 7.586950501039263 1 2 2
747 2 4.569512003482332 0.8385036260302104 8.218325230917369 1 0 0
35 2 15.121995815755717 6.368196587154013 9.590039541405565 -2 3 -1
378 2 19.91301408273285 5.916077912936144 8.459901040015263 1 1 1
463 1 6.815813544907425 4.664312927042628 9.65558983562609 2 0 -2
766 1 0.5277047930088861 0.565942829788807 4.502371335563632 2 0 2
223 1 7.30614987147394 8.516646073264 8.83344647781476 -1 2 0
577 1 11.345931257633103 9.119861496241764 1.895842044390364 0 -1 1
367 1 1.067738734629648 9.147963952929508 3.7574589322052256 1 2 0
150 2 16.941437650082094 2.8168648307295445 9.43866909787904 1 1 -1
379 1 19.495458486558135 3.4821439406324197 1.1911812441193599 2 -2 0
699 2 11.700081814278654 2.572381947502154 0.1930932149138792 -2 1 0
387 2 15.680866627590781 0.8638775275708727 9.545225479609964 0 4 0
245 2 8.145810130075539 1.6757645593920623 8.497017472820136 1 2 0
411 2 12.283933568342938 9.96083694056795 6.688158592422591 1 1 -2
894 2 16.071917114587688 4.868246251083856 10.203587787445695 -1 0 -1
621 2 9.259959166980016 0.8664650574972886 1.537822071539116 -1 1 -1
655 1 0.2580744441507683 10.289451558288592 5.9402789336748905 5 -1 2
505 1 20.53486811087516 10.08564765110048 9.072167042420862 -1 3 0
170 2 3.187007693939012 6.732708187475209 0.2476590986801339 3 2 0
730 1 5.8565578217197 5.894358440218751 0.6409217834830262 2 -1 1
198 2 7.286398485181569 6.678418927072238 0.5056996121896131 -1 1 1
859 1 16.448260134569125 10.001117033576003 1.7292469431537696 2 1 1
816 2 10.883436570134469 0.029653368243452393 5.8217217901341956 1 -2 0
935 2 8.056138328903705 0.018151849501471706 10.334037002397434 1 0 -2
672 2 7.560869267877748 4.814898978420372 14.655440202413834 -1 -2 -1
781 1 20.172725199875718 7.0533544137167326 15.634880997584787 0 1 3
678 2 18.57570286002216 10.199943937346626 19.852445488409177 0 -2 1
774 2 15.045555450713971 7.353862335141339 17.837618859763307 0 0 -2
439 1 17.724506510185336 6.044478720404208 11.73561859219882 2 -1 0
697 1 11.298168378492763 3.3375974206187475 20.420041106031174 -2 1 -1
161 2 19.906646165611033 3.01707782222315 10.824587210007467 2 0 -1
981 2 7.9592230783793285 1.3046709850807658 16.54214357666621 1 2 1
313 1 0.4849777694853726 8.958303348301495 17.50210067527244 1 2 2
212 2 2.0768364577158587 6.585196062931969 11.540770714785166 0 1 -2
980 2 6.825415262144565 1.8156034920864697 17.260860786495012 1 2 0
55 1 1.5669418866184135 1.1500064261098004 19.799587346869217 -3 1 0
286 1 19.177204795714648 7.852994220778277 18.96542428712954 3 3 -1
640 1 17.00896395301915 5.655411687005231 18.83311293776259 2 2 -4
47 2 5.645511636971237 7.605780196275266 16.42913719065227 1 -2 1
524 2 11.873203266594633 0.6402492676478136 16.60702015580141 -3 1 1
663 2 14.235649366543713 0.7839123732111261 17.699045601211864 -4 0 -1
399 2 8.69794954256461 6.257955643798058 11.83338179549806 5 -1 2
665 2 2.9911775704155916 9.403302141703474 11.927993293162707 1 -1 0
293 2 19.700001425027505 6.039695345316803 19.170982209333978 3 -4 3
718 1 10.400588170698125 4.697695476038342 16.224817995370973 0 0 -2
288 2 19.722843567707386 8.287342949147565 19.657076912239827 3 3 -1
523 1 12.379360097858786 1.436971701212317 16.97142926555403 -3 1 1
413 2 11.17469534097993 8.828979081349331 18.721146938493618 1 1 2
648 2 4.826018762972116 1.128543295103267 13.496677477700981 2 -1 4
48 2 4.5164154274182495 6.5768047170382005 15.949933622727222 1 -2 1
510 2 2.8233070977673815 3.3062355639065326 18.144809104476682 4 1 3
67 1 8.871107538261073 2.6187134624128223 12.04392286107011 -3 -1 2
962 2 18.05238572037896 3.3782429024248235 13.638485970599035 0 -2 0
447 2 9.849517921141633 1.3864071311023998 14.441334114975033 2 0 2
782 2 0.03815349559591048 6.253318329490631 15.728033855494566 1 1 3
614 2 1.2454204176077976 3.2145260102507787 13.023587362613888 2 2 2
554 2 1.277991395947713 4.305592363821878 10.34860239399878 1 -1 -2
609 2 13.174578881842493 9.043244653674254 14.644932935982803 0 -3 0
45 2 9.116210303500218 1.6872430956029965 18.256335618725007 1 0 -1
628 1 3.850223341786453 5.146697211066597 15.412149622353699 -1 4 -1
525 2 11.712095397092458 1.777297250344425 17.61094228656258 -3 1 1
89 2 15.087708801518417 7.47997686351383 11.959895609329333 0 0 -1
864 2 15.094774616275217 3.0029047409054708 13.550752025830558 0 0 0
551 2 11.862091371424299 2.590428933039445 13.305444176165317 -3 0 0
773 2 16.404583197867666 7.08362078864493 18.694743024085188 0 0 -2
670 1 7.735443859572686 5.248712835495903 15.555153152259154 -1 -2 -1
785 2 10.030868552326536 4.909055913471441 17.985591845042478 -1 1 -1
545 2 4.015530665243593 3.799991493429137 12.812962970964893 0 -2 1
94 1 6.784389668482031 10.127794687653642 13.216960817125052 5 -2 -3
606 2 11.044889851348222 5.986398763504888 11.152243678150699 0 -1 2
671 2 8.579857702441178 4.918609805907063 15.930461965426101 -1 -2 -1
211 1 1.8600577292900191 7.000912515720106 12.388785415503056 0 1 -2
756 2 0.742272412560093 0.3455173793117341 10.619961032044664 0 0 3
108 2 19.878683634879792 6.855303287625783 13.932090671214821 2 1 3
550 1 11.508954201098646 2.3508293382680256 12.462716403716781 -3 0 0
414 2 9.772772105493543 9.265411101815815 18.491086069322748 1 1 3
647 2 6.377866416840273 0.999916452648066 13.120727527781195 2 -1 4
905 2 2.357732806146407 8.037756433013177 14.112660002082157 1 1 -2
998 2 12.272072739725015 4.591280581532196 20.03199015339793 -2 2 0
641 2 16.434577594935167 5.095624011244333 19.37431531929753 2 2 -4
386 2 16.267845014917953 0.9790790183814813 11.001584340501667 0 4 0
69 2 8.554953338924744 1.729998023786285 11.716890209669172 -3 -1 2
468 2 6.6686591818826075 0.09596556751101597 20.00263463763731 0 3 -2
556 1 4.12236245481769 10.271860211508297 19.169551287834928 2 0 3
44 2 10.052650383961256 2.345134713129791 19.416344605906897 1 0 -1
1003 1 6.470498782943134 10.021052462558142 20.482175853146337 3 -1 0
607 1 13.268077214374143 9.124977454455363 13.688434156432834 0 -3 0
213 2 0.9559669943460869 6.690729690150234 12.577989840898482 0 1 -2
46 1 4.679920058825184 7.510694321705734 16.19954221037297 1 -2 1
434 2 11.138254662916916 7.449702627567558 14.761431362518357 -1 0 -1
851 2 18.121724150134686 0.08522202128946374 15.551884421327136 0 0 0
917 2 20.04937176656583 8.400672648381812 12.176486181216873 1 0 -1
992 2 16.862744977808347 8.333507842093274 13.638652863999342 0 2 -1
160 1 19.599425381117268 2.0843468653513586 11.045728854626697 2 0 -1
502 1 20.129164115474282 2.241924909085501 18.76755438627666 -2 -2 0
186 2 20.24588796224296 1.1061497669464322 12.79808925334999 4 2 0
440 2 17.555723311618 5.146443661435312 12.010270834531314 2 -1 0
772 1 15.831465145540434 7.801813813484554 18.277398713786884 0 0 -2
314 2 0.4027001934520624 9.951307117711382 17.43838781874512 1 2 2
18 2 6.302757600539634 3.2438224125800197 13.658189948308467 -1 1 -1
57 2 2.123632588803951 0.9745609626360653 19.03977846339664 -3 1 0
705 2 9.774950893237104 8.940068019907745 14.605191140240654 1 -1 -1
126 2 16.019488400493362 1.2658650914006966 16.386188515922726 1 0 -1
546 2 2.8670539025081605 4.832563734904378 12.771730271667264 0 -2 1
677 2 17.606637045434365 10.19237494839815 18.557053851877914 0 -2 1
84 2 12.350189556866503 2.6131157553655124 15.62833653794211 -1 -1 0
166 1 3.038523637805673 8.05671562127732 18.139004351428596 0 -2 -2
16 1 6.937068442739663 3.898544040569447 13.346747708324289 -1 1 -1
122 2 0.42670298677280716 3.2982060913871067 16.038903042386007 -1 1 -1
424 1 13.763900326298716 6.633696533655055 12.826646628043399 0 1 2
26 2 7.690765545152817 6.8852008059144225 15.9863581132914 2 1 0
123 2 20.215539891501564 2.388949287799028 17.01092672958616 -2 1 -1
172 1 8.764109351157193 9.176269238628775 11.414992144297532 1 1 0
210 2 18.851052180365194 1.2143165278978958 19.67159909561901 -2 1 -3
997 1 12.752216641892986 5.434385314228491 19.76327843278933 -2 2 0
963 2 18.450712330892994 2.9387364897553767 12.177601379307216 0 -2 0
266 2 2.560663260579346 1.3612243231719083 16.623372574400694 1 1 -2
90 2 15.624443372732662 8.766481457628785 11.328977007749613 0 0 -1
283 1 15.548654426601262 3.3976053390391185 19.543101746622895 -3 1 -3
799 1 8.208970884775768 8.477625265055705 18.889607947970994 -1 1 -2
720 2 10.975576123236408 5.520352084017708 16.221595613702462 0 0 -2
327 2 17.673949150141773 7.733186442760047 20.35132039732678 -1 0 -1
769 1 5.245576865182262 2.5874575239221254 10.57923066460711 3 0 0
961 1 17.7519525000437 3.308174355854066 12.710445508573471 0 -2 0
801 2 7.625295450365107 9.19299295747755 19.155350209167214 -1 1 -2
412 1 10.614864238217972 9.231955981055963 18.039996717256138 1 1 2
994 1 17.29486011260307 9.300385650878116 16.76990188806642 -2 0 -2
425 2 13.403208383583966 7.467326556501642 13.271449639058584 0 1 2
886 1 6.7599495043084845 6.222655240866937 11.849826219631579 -1 -2 -2
82 1 12.1323173977064 3.2329969353947936 14.914281788777872 -1 -1 0
181 1 2.6729799428539036 2.3042608821499555 12.643687663940836 0 1 2
964 1 13.383736708747197 10.267461054795335 16.516153728862413 1 2 4
666 2 1.6013901367227161 9.951760351923364 11.752760042783787 1 -1 0
287 2 19.45561458998312 8.419933007064698 18.24600322520957 3 3 -1
661 1 15.109012230834301 1.1013697729012173 18.011926772513 -4 0 -1
140 2 13.688643506373854 5.486705444625619 18.40314247752038 0 -3 -2
608 2 12.307217930316753 8.985334201502768 13.40569235034649 0 -3 0
174 2 8.054372582285271 9.307736228724764 12.075774752504898 1 1 0
857 2 17.22995810035357 4.894489496957111 15.645413303361671 -1 0 -2
664 1 2.5033546547314205 10.02974182427698 11.373478761803238 1 -1 0
22 1 11.858919976946673 7.116248431280671 16.33215406391221 0 -1 -2
68 2 9.838710084355474 2.557528774125466 12.17871885696857 -3 -1 2
441 2 16.88341800380592 6.56865059462312 11.70260175451059 2 -1 0
66 2 5.5903981540177545 8.888477729646436 12.384633005422486 2 3 -1
106 1 20.084206211779705 6.8980195347892845 12.953854948884036 2 1 3
704 2 9.703726717158633 10.235071945556271 15.39813558728166 1 -1 -1
208 1 18.47978232659197 0.35737291056234255 19.97730554837802 -2 1 -3
124 1 16.660111013543624 1.1128637876933192 15.660501026975979 1 0 -1
719 2 10.933739018734219 4.068443308515435 15.692274484715957 0 0 -2
188 2 14.865904900539626 10.303232122375139 13.040434093297499 -1 -1 -1
965 2 13.755044273394013 9.978996110640978 17.360115893527315 1 2 4
842 2 19.095201947512958 3.5220456185233693 15.57604779925068 -2 0 -2
893 2 14.62565337871482 4.493803629903917 10.729555437280702 -1 0 -1
243 2 12.147480375489845 7.1132741818169505 20.15860823545444 -1 -2 1
171 2 3.402065985038814 6.886509983777931 19.3646893945569 3 2 -1
183 2 2.360751561331392 2.050359891609327 11.762107720645059 0 1 3
509 2 4.243546706238326 2.7392804425735973 17.598286938064486 4 1 3
508 1 3.3145581601964853 2.547980329142962 17.753577894553228 4 1 3
604 1 11.87807553073634 5.951892670752493 10.629823940954013 0 -1 2
703 1 9.141542204608157 9.526089924664019 14.996042144679874 1 -1 -1
504 2 19.797129175770248 3.084640732023634 19.054865217967066 -2 -2 0
662 2 15.483854634872408 0.2746059882867307 18.41713493410642 -4 0 -1
27 2 8.19263221402194 8.402863499205912 15.955681753532645 1 1 0
38 2 7.990210933437097 4.287377466664937 19.394232715749098 1 -2 -2
265 1 2.1389042300361307 0.5551676446716983 16.21249834601289 1 1 -2
858 2 16.76533675468589 6.329845408339366 15.135209511856536 -1 0 -2
979 1 7.635346759781884 1.2898288590752034 17.421938906266757 1 2 1
168 2 3.588412849326315 7.789111375989617 17.403501285524587 0 -2 -2
141 2 14.86925558258503 5.308702497631477 17.265590408778063 0 -3 -2
185 2 20.31651793578207 1.811133796645595 14.203722139010537 4 2 0
552 2 11.953271364562257 2.7499170161957878 11.68816083892408 -3 0 0
471 2 15.216136283531947 4.764049940751165 14.750714437904746 -3 1 -3
843 2 17.72649074235434 2.9344246741961286 15.796316060201043 -2 0 -2
869 2 0.9459374796732405 4.584815222412235 14.456988404581745 -2 0 -2
989 2 3.0633437655461857 0.24040310492683212 14.92141052288578 2 0 0
415 1 1.979713340240644 4.486535718838338 18.85224299203282 3 0 -1
862 1 15.522622393670284 2.171860966343818 13.376302792611071 0 0 0
888 2 6.048749468689132 6.949924537460188 11.948802743914467 -1 -2 -2
469 1 14.478462192265273 4.4859009237107195 14.130431786927856 -2 1 -3
630 2 4.42032310596236 4.457507591294714 15.869298371641435 -1 4 -1
284 2 15.200490662021817 3.316520067077816 20.419981611275865 -3 1 -3
398 2 9.363026745231476 7.496636499388576 11.643558916723663 5 -1 2
56 2 2.1502645605272703 1.0369412895262222 20.596085703163777 -3 1 0
642 2 17.270283332337705 5.171935004964558 18.084914704466463 2 2 -4
629 2 3.7153496393456575 4.870868365473382 14.446667051937368 -1 4 -1
121 1 20.52526505283318 2.5044786677291135 16.070853502495318 -2 1 -1
433 1 10.733487905276492 7.882223882113793 14.001884424243176 -1 0 -1
906 2 3.6429478074195725 8.207166866699422 15.129591070465741 1 0 -2
315 2 0.26859586141699027 8.49355051916137 16.69957136752236 1 2 2
902 2 6.269869686220108 4.206095696628834 16.628308723192742 -2 1 0
445 1 9.26508964552087 0.6779241097000863 14.883566944399886 2 0 2
37 1 7.136714944263983 3.9613120164824993 19.779694964576578 1 -2 -2
139 1 14.104611021252268 5.864420739855706 17.56254558577312 0 -3 -2
991 1 17.19784702474999 7.9910085653589205 14.516855875153292 0 2 -1
25 1 7.598552923123234 7.808119654683112 16.44144606418563 1 1 0
416 2 1.0190233322856723 4.768521270279637 19.020148661055668 3 0 -1
39 2 6.655836327072718 4.745211985426932 20.163247407301935 1 -2 -2
995 2 16.71121347871394 8.754266269259537 17.26569953118582 -2 0 -2
470 2 14.241844564907387 5.281340187503666 13.633722636267319 -2 1 -3
107 2 19.32097570746179 6.508910019335486 12.49874357383335 2 2 3
125 2 16.18027055148703 1.53669655493951 14.886019265865757 1 0 -1
167 2 2.149551528119548 8.269341187256357 17.832410048596735 0 -2 -2
770 2 5.315452100447844 2.292329456687323 11.545302115053996 3 0 0
169 1 3.504972228288119 6.300060556950851 20.129988272877203 3 2 -1
826 1 14.19719911250956 9.661983963877978 19.166666735892132 0 -2 0
422 2 9.039544920865707 0.42509683601852466 19.79808686361949 1 -1 2