LAMMPS data file via write_data, version 8 Apr 2021, timestep = 866000

1008 atoms
2 atom types

0.12521261831456731 18.358187381671247 xlo xhi
0.1515509355457126 22.265649064446517 ylo yhi
0.25742802415261495 19.132753975830507 zlo zhi
0.19658126776914847 -6.736912023815951 -0.0661718301127686 xy xz yz

Masses

1 16
2 2

Atoms # atomic

1 1 1.6870892517202885 4.2762155897331136 2.474494306854166 0 0 0
2 2 2.382277502258149 4.857070256290722 2.926022528278935 0 0 0
3 2 1.239523301070442 3.8934676408761404 3.258620555797895 0 0 0
4 1 3.2222830616050744 5.850769530195637 3.9386772264318997 0 0 0
5 2 4.004496423084163 5.438716882935605 4.376475300285303 0 0 0
6 2 3.4778984013562986 6.729026719176674 3.6094382018480635 0 0 0
9 2 0.6541859379242118 5.349972961550125 1.5193527893628214 0 0 0
10 1 0.8449342931145741 3.1562613244014885 4.963474114544294 0 0 0
11 2 0.9618770463348615 3.8065154575187194 5.720062942736905 0 0 0
12 2 -0.040238275438257726 2.7580412814275865 5.145937627852037 0 0 0
14 2 2.246396028621631 3.6194858032534234 0.9678319964312246 0 0 0
16 1 3.4163921532143644 1.1829470864502356 2.4533887132288164 0 0 0
18 2 2.5414508436112193 1.414167408893605 2.6528735664025875 0 0 0
19 1 0.7242366346424529 0.9470246812969098 2.690725695506379 0 0 0
28 1 1.1612965902392314 2.4220058420881276 8.957392977117609 0 0 0
30 2 0.922857550084308 1.7766979714589741 8.286000569011355 0 0 0
31 1 0.6778683382425525 6.74445557436513 4.835345231930779 0 0 0
32 2 1.6138404409595242 6.415421298993961 4.7309942194857655 0 0 0
33 2 0.5511287582035929 7.3051599313174345 4.049648965507516 0 0 0
36 2 -0.6066867694139854 7.261191105323993 8.52522319292526 0 0 0
37 1 -1.917153918789853 4.577655799652971 7.35629807061781 0 0 0
38 2 -0.8864760381812572 4.780210744260375 7.370420954066015 0 0 0
39 2 -1.9851737354669332 4.232105071364297 8.243028701582134 0 0 0
40 1 0.7844568034641654 4.6924981632951726 7.377488199313521 0 0 0
41 2 1.5424143783141777 5.318956222452986 7.4680440319571435 0 0 0
42 2 1.082376567299867 3.9231772752944396 7.967753704863134 0 0 0
43 1 4.2235672095927725 3.3270129772808255 7.071343093881423 0 0 0
44 2 4.5245122230840416 3.8564842309792344 6.285784250439727 0 0 0
45 2 3.5405259517908245 2.730247575416506 6.682181887914909 0 0 0
46 1 2.757034486101633 1.4359850641021514 5.342220583550855 0 0 0
48 2 2.014662321806654 2.0062535482092154 5.158733212624007 0 0 0
50 2 5.148295898484037 2.264352637092869 7.911400248495874 0 0 0
52 1 5.278458616399649 4.29799875375022 4.936489605320705 0 0 0
53 2 6.1521936634937235 4.81375077857926 4.876172716771994 0 0 0
54 2 5.265557784365207 3.65939203101755 4.179852813776228 0 0 0
57 2 3.888431604255648 4.07921166492565 8.669122516737831 0 0 0
58 1 2.773306914380881 6.667761187939472 7.412706061489721 0 0 0
59 2 3.7000771829554404 6.379288676694845 7.358190060626667 0 0 0
60 2 2.801566425388341 7.202882764465153 8.216877890559454 0 0 0
61 1 5.47375888774103 6.712856481644299 7.499197241882056 0 0 0
62 2 5.8683952303826645 7.456162175304045 7.970302155954032 0 0 0
63 2 6.059533171454154 5.969187928085862 7.545581237370451 0 0 0
64 1 6.418012843729285 7.106898160585439 2.5670777650816676 0 0 0
65 2 7.139227056278363 6.565589924256832 2.941956297629782 0 0 0
66 2 5.949521807471317 7.445822549283687 3.3649380592138782 0 0 0
67 1 7.79460477502017 5.188602077867373 4.050556813477015 0 0 0
68 2 7.895627936192117 4.406193722610821 3.512130029474761 0 0 0
70 1 4.998884628010556 5.260676917847361 1.001658000251025 0 0 0
71 2 5.438246370005036 5.934350433027564 1.5459842377523785 0 0 0
75 2 4.438150517518059 1.2244808619891638 4.801145070808055 0 0 0
79 1 7.741842852245966 2.9337308693578508 2.466070526729932 0 0 0
80 2 7.799926955528538 3.426755974462676 1.6128793710470881 0 0 0
81 2 6.794273165588125 2.686323946317334 2.480149744538131 0 0 0
82 1 4.980593158953719 3.0840744492267587 2.6869965369206836 0 0 0
83 2 4.870187329837703 3.8442808651080296 2.006355130388436 0 0 0
84 2 4.343949528945722 2.392969143036482 2.516892743487155 0 0 0
91 1 9.348656560642475 6.0732183324980955 1.2927313715387647 0 0 0
104 2 8.988528691478614 1.748234251485135 2.979017982301369 0 0 0
109 1 7.542417918206996 2.462115432175155 5.736224629926605 0 0 0
110 2 6.702026167859788 2.2498200659381644 5.2711422063828755 0 0 0
111 2 7.415645826844969 3.308500546620154 6.214394849215218 0 0 0
121 1 7.412910582122866 4.642293536998322 7.4167254308518284 0 0 0
180 2 0.15760737544353753 9.962557471626535 4.7383417228846145 0 0 0
184 1 3.1109765774822287 8.362049105114677 2.593981751920776 0 0 0
185 2 3.2059346641434483 7.919514065525013 1.7145037658101698 0 0 0
186 2 2.214690888397211 8.697716339922598 2.613674798070235 0 0 0
187 1 0.5057037425877011 8.345725149051079 2.557005480017839 0 0 0
189 2 0.29617060526264455 7.647844295901353 1.9324146267942786 0 0 0
190 1 -0.03841537013403712 7.862820720935064 7.107980800110757 0 0 0
191 2 0.39765318926147913 7.308984179434037 6.379573339269316 0 0 0
192 2 -0.6386606446785255 8.411909802546404 6.605274468411384 0 0 0
196 1 1.283961537083052 9.542826185965511 8.740879008217211 0 0 0
198 2 0.9594577366816464 8.860732808858625 8.122294719183705 0 0 0
213 2 3.870741540646509 9.826700819427113 6.956259558074786 0 0 0
214 1 3.1215456980469045 8.759760710436671 5.8761379759962615 0 0 0
215 2 2.9023194296343426 7.920839208950227 6.387176096612223 0 0 0
216 2 2.3328537655935246 9.04799639726841 5.382655140587837 0 0 0
217 1 6.04957249775695 8.957650571843455 8.71003155433058 0 0 0
218 2 5.5450062599674075 9.633909612499247 8.108628046109462 0 0 0
241 1 5.652017552855358 7.9184010750026745 5.092314774262001 0 0 0
242 2 5.663082131877952 7.266820568401604 5.817101198642662 0 0 0
243 2 4.822090870033548 8.414649768933403 5.074448944689035 0 0 0
245 2 6.6200978268263775 7.963915032454973 1.0315164502383456 0 0 0
247 1 7.643570064645277 10.483696018679106 2.3062148277817736 0 0 0
249 2 6.7034896153308905 10.231478751831093 2.540317023049318 0 0 0
250 1 4.9988920303953055 10.318318209086653 2.8607265046535773 0 0 0
252 2 4.295959460080648 9.613096372802582 2.812133738490749 0 0 0
272 2 8.951049349559947 9.30642492191964 2.491867001189615 0 0 0
273 2 9.389327170306577 7.852652007075516 2.2011438491064212 0 0 0
277 1 7.557529627783751 9.693002617845147 6.044819395678591 0 0 0
278 2 6.731241674215208 9.429387665500359 5.688400702660687 0 0 0
153 2 -0.5644152622276852 5.436133505379379 4.521304864474712 0 0 0
49 1 5.543814800123257 1.6559547145253035 8.571578831688917 0 0 0
24 2 -0.9437875827352681 1.1769075325742095 7.01767682670951 0 0 0
69 2 8.665063581391145 5.457425379144444 4.4518556540018634 0 0 0
93 2 9.731478545116225 5.394062169929144 1.8919226431546994 0 0 0
96 2 9.18606355370174 2.7212628911800025 5.256278890529057 0 0 0
103 1 9.657220169505653 1.0428416182950886 2.9581458346771723 0 0 0
108 2 8.054817943039348 1.078329135555348 7.013446144453031 0 0 0
122 2 8.373873552976454 4.879350976330062 7.481475201265835 0 0 0
123 2 7.374093874583026 4.203899921069369 8.29046365985012 0 0 0
271 1 9.511797912780906 8.582623659681722 2.8400111700556097 0 0 0
276 2 8.345270974854055 8.329753549474079 6.9652528241505305 0 0 0
264 2 9.332089674261534 10.089673868202821 5.3558128923144865 0 0 0
117 2 9.696144115749485 7.612415153752704 4.3155201627333275 0 0 0
85 1 10.770663758626199 4.175752430274717 2.825855807887305 0 0 0
87 2 10.615053275289462 3.61360947311682 3.6235395724526307 0 0 0
98 2 11.076290687174858 3.41721313579917 1.3390720661570525 0 0 0
115 1 9.803939628882214 6.871091901887957 4.981768834924726 0 0 0
120 2 8.523335441335185 7.087763888985749 9.082105461936981 0 0 0
188 2 -0.14024710466317897 9.087111740508778 2.4877560384823414 0 0 0
47 2 2.4485516929506876 0.6802131453178984 5.848344692962207 0 0 0
178 1 1.0907370262415559 10.272047867063325 4.6540493452192475 0 0 0
73 1 5.354398416548848 0.958512993909781 4.69807450309287 0 0 0
94 1 10.14747686635148 3.0621080985707794 5.228028967996694 0 0 0
274 1 8.996754148301324 7.831711844137954 7.504534690922687 0 0 0
275 2 9.426804817834116 7.300498197680029 6.799886618747714 0 0 0
262 1 10.152459261317613 10.532801706572194 5.067849364339301 0 0 0
7 1 0.34779696675641514 6.082629410251099 0.9597481671989027 0 0 0
95 2 10.182988650223761 3.7247366951323726 5.943765649131688 0 0 0
270 2 11.4010323587647 8.676206609663929 2.5920965001236964 0 0 0
102 2 11.397918858604749 1.362050009850511 2.436296399848885 0 0 0
86 2 11.47597289085126 4.7911434875542325 3.139610362021771 0 0 0
116 2 10.594628823720818 6.443551921607437 4.663625410964747 0 0 0
20 2 0.02749181099678255 1.652556858832614 2.616957276874158 0 0 0
124 1 10.31055729689199 4.540044518741805 7.430121974722441 0 0 0
282 2 10.1478455757578 9.170699968964549 8.347631606466187 0 0 0
269 2 12.124440766536221 7.905231994014524 1.5675177680237038 0 0 0
268 1 12.29057084589643 8.381605095262442 2.4329052429756177 0 0 0
100 1 12.330271566590719 0.991887795328621 2.3863458542517204 0 0 0
114 2 9.910900225394673 1.8327184033431922 8.281323059591413 0 0 0
300 2 11.352292663558945 9.424265056636786 5.347430262121389 0 0 0
126 2 10.298264930290182 4.006644347770079 8.248276650445598 0 0 0
132 2 11.336161493411117 2.0128638727783916 5.773831533470144 0 0 0
112 1 10.049530363055887 2.4723065844532743 8.985157869920348 0 0 0
280 1 10.368561422026374 9.780034320806223 9.034446834539654 0 0 0
125 2 10.914272507120005 5.302668180222538 7.658415063060503 0 0 0
22 1 -0.2834920745551306 0.586864230416294 7.4268025993238505 0 0 0
279 2 7.404003388190091 10.563347036487862 6.49553612550713 0 0 0
195 2 -1.7007083581585842 10.40641839045342 6.05985461399997 0 0 0
519 2 -0.4750299360277076 2.815850937508878 9.572000243683004 0 0 0
211 1 4.479159415365584 10.50828966490858 7.275531343673367 0 0 0
106 1 8.887009937533326 0.728616011834966 7.384250350390752 0 0 0
90 2 12.644779895494136 6.757095562835676 3.617167179033084 0 0 0
88 1 12.407968621658137 5.8842929975694185 3.88765156010525 0 0 0
299 2 11.865778333519453 8.156406259755277 6.261998112694183 0 0 0
298 1 12.191701488873441 9.00056725306485 5.8042299295681765 0 0 0
130 1 12.223875666155859 1.7327334849123985 6.0513967670031485 0 0 0
131 2 12.058767005138312 1.0038168063867225 6.641568304272857 0 0 0
336 2 13.471702771738148 9.818964084358651 2.6333003702776727 0 0 0
168 2 13.451246158775696 2.2403590382959786 2.676281212232034 0 0 0
154 1 13.806398263143386 5.364300219983983 0.9772657719734075 0 0 0
89 2 13.219788589567722 5.4987181370761755 4.353829228561044 0 0 0
142 1 11.885748023866292 6.792664562482757 7.469335869069666 0 0 0
167 2 13.814640803921002 3.7050699006502255 2.15821255330916 0 0 0
144 2 12.061009309043376 7.105009494349872 8.352051299178404 0 0 0
166 1 14.161713327119013 2.9183325198335446 2.593714390771909 0 0 0
155 2 14.31003503171158 6.102911902847011 1.4342448284850813 0 0 0
334 1 14.158505556656552 10.45807875878842 2.7581776767278594 0 0 0
297 2 13.098560299138917 10.017210282369039 6.838737847185254 0 0 0
129 2 13.143762638594296 3.0034709577710768 6.772079741331222 0 0 0
327 2 13.833815428007771 8.537664743742708 4.8986741127959545 0 0 0
162 2 16.564485638763436 1.3360759070805817 0.2737253935890124 0 0 1
332 2 16.736158207047882 10.689298836187572 1.4513301754897636 0 0 0
156 2 13.016098421564708 5.836085519558275 0.5564642859002517 0 0 0
51 2 6.289374340904391 2.187509424025635 8.961619744053435 0 0 0
146 2 14.965387362082302 7.5166059717741565 7.896967211935129 0 0 0
219 2 6.605296139876769 9.47933027054292 9.330552402203743 0 0 0
302 2 14.575623466772221 9.382743592529932 8.213343498703642 0 0 0
197 2 2.159344120347609 9.147763176750153 9.043082917550235 0 0 0
25 1 -1.47281246374668 2.2881923314140096 5.783996229559846 0 0 0
303 2 -2.51661099637027 9.294495878856166 9.254157161343848 0 0 0
135 2 -2.7903911924030464 2.1108610335635105 9.086790468052728 0 0 0
133 1 14.667914001443963 1.5121419285803814 8.704495873200408 0 0 0
105 2 9.319784778339642 0.45714873458671546 2.2345912667041934 0 0 0
92 2 8.847340492557667 5.519636622285662 0.6249939804744614 0 0 0
193 1 -1.3324293180953637 9.572894956642823 5.651597988184496 0 0 0
181 1 1.9739745226799563 10.435871859821289 0.4190269890565472 0 0 0
72 2 4.116664362445098 5.636748269698533 0.7082181361577001 0 0 0
210 2 1.50002988157742 11.038459348876042 7.511971929198791 0 0 0
281 2 11.069732051070886 9.45227778946505 9.608342099867759 0 0 0
194 2 16.122807267704786 9.200413682965266 5.228753406979199 0 0 0
582 2 4.05436674902045 1.2352932742546465 9.354849963993809 0 0 0
326 2 14.890472262000657 7.518162750300492 5.5560575421775535 0 0 0
29 2 1.9883270284624168 2.0680204883745854 9.363269596836421 0 0 0
248 2 7.563863312990984 11.055203775298295 1.5133093187944127 0 0 0
101 2 12.297670023816035 0.577580643957083 1.4506983542273861 0 0 0
17 2 3.3836194428867286 0.8324663619763145 1.51463410897411 0 0 0
160 1 15.651334344940404 1.0317574093086372 0.4776844384050136 0 0 0
333 2 15.919063672822311 10.04903940536866 2.546923139291697 0 0 0
539 2 1.7729634748400396 6.556693239743194 0.4392094242760087 0 0 0
134 2 14.290667027569796 2.134628994930633 8.060334001851384 0 0 0
137 2 15.404786877006194 4.67905538336375 4.7218718138900195 0 0 0
265 1 11.0893970403697 10.544087603599246 0.267709035569556 0 0 0
27 2 -1.7557263611724174 3.107320642636082 6.309724404605781 0 0 0
26 2 16.01985152466899 1.8249034053721702 5.3832129645018725 0 0 0
107 2 9.269343410532104 0.27671064900001563 6.597782168735014 0 1 0
149 2 16.1986052247254 6.203393639844473 2.827338604290398 0 0 0
580 1 3.1707005622503064 0.881748056575214 9.624721639006882 0 0 0
145 1 14.727765176641581 6.90089857819865 7.200972125281568 0 0 0
295 1 13.648318352773291 10.628084949324839 7.406633120453666 0 0 0
331 1 16.826567169737025 10.249524309772937 2.377442595886183 0 0 0
266 2 10.953611808803368 10.942374137006153 1.1572377681489723 0 0 0
159 2 13.744819266266116 1.1564706875403357 5.049872382187282 0 0 0
143 2 12.738470078128133 6.627018546701678 7.008126498852526 0 0 0
138 2 14.346632670299977 3.7209705748837534 4.309333423440632 0 0 0
150 2 15.179833610752237 7.38038933830338 3.1611923108846347 0 0 0
127 1 13.85125060432343 3.4754261755782947 7.208457259273585 0 0 0
157 1 14.657390685436738 0.7546615984962544 5.001030768292062 0 0 0
329 2 15.859218713822935 7.98863189462254 1.1342875788030256 0 0 0
136 1 14.466307727140759 4.485306739567648 4.863893876386173 0 0 0
148 1 15.587257355960546 6.901566592782912 2.4256730721925868 0 0 0
325 1 14.669364894801783 8.084890701125632 4.771200492157932 0 0 0
128 2 14.273281355742402 4.0666167327357226 6.570238812038388 0 0 0
141 2 13.423712204876674 4.031777396469653 8.72824458013434 0 0 0
165 2 16.24090583180416 2.7252436440768566 2.5603200039043212 0 0 0
77 2 6.512253623788066 0.3431591086936336 1.0431222237052267 0 0 0
8 2 17.832756508531016 5.756489097897732 0.4687951379543612 0 0 0
182 2 2.083868287650119 10.895558440474385 1.27602372315984 0 0 0
179 2 1.1803749242716037 10.901210522173423 5.401504844622252 0 0 0
161 2 15.565087082591878 0.6929553583607232 1.4117628054585367 0 0 0
139 1 13.348054611162636 4.414050443105667 9.61140056228835 0 0 0
623 2 10.68922115765677 6.827006809925023 0.35219202698060614 0 0 0
163 1 17.13521694596139 3.099453020503384 2.313500420137584 0 0 0
251 2 4.876702638064493 10.958411129735675 2.1610846106806356 0 0 0
685 1 -1.1259258396699061 10.364340689112568 9.66466290253965 0 0 0
517 1 -1.4721364204908687 2.9714834975707154 9.660552640323205 0 0 0
748 1 3.3924952893435183 8.201674175407506 9.62514594042242 0 0 0
687 2 -0.207067923430663 10.120447756431073 9.417789167762626 0 0 0
750 2 4.2626415951175725 8.525014618839004 9.422508037115149 0 0 0
55 1 3.9208354167848984 4.468837160526103 9.58425835051127 0 0 0
164 2 16.89875562049219 3.6299946743862375 1.5413766876430621 0 0 0
301 1 14.842197386855611 8.886256723771718 9.004731141369838 0 0 0
402 2 5.599284228027632 0.24541349467742585 3.145763922246374 0 0 0
74 2 5.447579785052892 0.30012190206334177 5.4255879433664145 0 0 0
97 1 11.04984045094671 3.160915139201714 0.42402275509419723 0 0 0
147 2 15.314359173382634 6.1269251299817675 7.353202083978904 0 0 0
152 2 16.990831398509595 4.301019873329747 3.6368788396550578 0 0 0
151 1 16.855014266354374 5.219643514332653 4.016364154195144 0 0 0
296 2 14.235899577173168 11.072727824601206 6.753920767764914 0 0 0
21 2 0.44333206581695256 0.2850271374549164 2.062557022493526 0 0 0
113 2 10.816211081641393 2.090177993041167 9.490141138235268 0 0 0
34 1 -0.7060724347890274 6.997789890455416 9.477120754509766 0 0 0
834 2 13.421252415621371 8.304590512056345 9.69183660427073 0 0 0
644 2 15.425602330211433 4.8733700306287195 0.38767774132406035 0 0 0
538 1 2.7347308168253774 6.728922038633724 0.2777510188549785 0 0 1
453 2 9.926604442321612 0.19313973345921037 4.395450321455111 0 1 0
398 2 5.785193626954338 0.2597242608120659 7.677680489672269 0 1 0
603 2 8.543444671489496 2.9286086547059464 9.502441721399002 0 0 0
601 1 7.581449599313465 3.1088147494551617 9.650543648333585 0 0 0
560 2 6.580253021722072 4.610838435560219 0.3800146518414502 0 0 0
771 2 8.753343944622994 10.248210118458205 9.560703654906535 0 0 0
263 2 10.342543432106275 11.140411834885649 5.832431961996943 0 0 0
212 2 4.730963088174809 11.039760851864381 6.4786834035017895 0 0 0
35 2 -1.6047053573168126 6.763825610938316 9.655543459351414 0 0 0
521 2 -0.4346216256156967 0.14824653167266474 10.993095280232577 0 0 0
805 1 11.588227082203467 8.95794398511697 18.27972274802724 0 0 0
701 2 -1.5194098827440814 9.114605027405025 18.33686950571183 0 0 0
660 2 9.95229994240669 5.668079959047766 10.0935378944283 0 0 0
716 2 1.5004555495309053 11.062953825540633 15.927047717689257 0 0 0
635 2 8.163891414169088 0.9269388866359095 15.842528283129859 0 0 0
831 2 10.137699407164774 8.558600987493605 14.400064540023505 0 0 0
766 1 6.591861874217851 10.541843140602264 14.350048926784973 0 0 0
752 2 4.449540028167342 10.69146688877142 11.035501306176412 0 0 0
682 1 -2.561496080794331 10.401112632039643 14.42301424350965 0 0 0
330 2 10.062359247590175 8.51196219822761 18.829546035747267 0 0 0
13 1 -4.457619514555766 3.2081653011624205 18.92447185080276 0 0 -1
802 1 8.612017963445162 8.769054346842266 15.294642892076347 0 0 0
666 2 13.209068947716746 1.1322261966242586 9.768570599263878 0 0 0
838 1 10.983332707205621 10.423327364425585 12.059454325409824 0 0 0
617 2 7.574583426251197 2.01222070070426 18.84534428819177 0 0 0
612 2 4.817170068199034 1.0129094696957104 16.12259367548244 0 0 0
526 1 -3.4801110017157506 0.48789984915358975 16.63456769281652 0 0 0
551 2 -0.5934591181206814 0.6571715964580462 15.676643461223673 0 0 0
714 2 -2.3059085162270136 11.137664382251154 17.351985280891004 0 0 0
15 2 -3.567584510261293 2.884095793587219 18.73205060704785 0 0 0
686 2 -1.1524404516128905 10.657271773403362 10.585305784422138 0 0 0
605 2 8.751214379443942 0.6149254874623095 11.238705991893134 0 0 0
512 2 14.569177762882191 5.725455566031839 10.082656695318839 0 0 0
576 2 0.6692382087224842 5.695204554864707 10.264759670830793 0 0 0
559 1 0.7834605545376582 4.229987836605228 19.064434831157634 0 0 0
799 1 10.07733602849889 10.748719206757244 16.625280746263236 0 0 0
639 2 -5.768518016286589 1.9185933955463224 18.631441252265 0 0 0
784 1 6.995733724243352 9.544013186411448 18.415263969883693 0 0 0
505 1 -1.7817712302600102 4.16228944336496 12.12207166436371 0 0 0
506 2 -1.1883150615308056 4.817720703039979 12.600185072791485 0 0 0
507 2 -2.07842710190527 3.583495804176777 12.873382064754134 0 0 0
508 1 -0.4019193444877589 6.13063654987409 13.508167324457583 0 0 0
509 2 0.44617702839875045 5.788586749378199 13.90087623536805 0 0 0
510 2 -0.2290352007534171 6.831855743403685 12.875432900534658 0 0 0
511 1 -2.992937954697527 6.132984278172876 10.637920622249952 0 0 0
581 2 3.33413539790293 0.434831364588942 10.452308880473803 0 0 0
513 2 -2.7238752711226284 5.4682655267677776 11.321448506902756 0 0 0
514 1 -2.5001003311375585 2.8041511929921685 14.481740413905866 0 0 0
515 2 -2.3482112078529322 3.5934022763300932 15.068980865024493 0 0 0
516 2 -3.4962108745594636 2.600024694271341 14.582767369565234 0 0 0
699 2 -5.176405112389537 10.32187782274453 15.843000467900596 0 0 0
518 2 -1.6064537839172979 3.2690321757311565 10.582270494403039 0 0 0
577 1 2.1306142283544065 0.6942066721001989 14.20553495509769 0 0 0
520 1 -0.3229913615821287 0.6428144144956988 11.82905170306695 0 0 0
522 2 -1.1993053228136694 0.9250853627071892 12.084286398509326 0 0 0
523 1 -3.1269638497971846 1.0523270766070791 12.042394440041102 0 0 0
524 2 -3.9278376676318394 1.6355572161371403 12.071074539420337 0 0 0
829 1 11.0014801027217 8.134366027489392 14.359100113290191 0 0 0
836 2 13.829502297564362 10.956540102882778 11.03080884454531 0 0 0
529 1 -5.088829683137945 2.1412298668794185 15.120412061149224 0 0 0
530 2 12.31233873541007 1.6692064086283345 14.830422452413629 0 0 0
531 2 12.942758203142082 3.021406056382501 15.481515694540644 -1 0 0
532 1 -1.951954048202131 2.3235384961067678 17.791184214049586 0 0 0
664 1 12.260923602206244 0.9852057410659414 9.967016463756776 0 0 0
534 2 -2.488366760860893 1.651411729730619 17.290384190935345 0 0 0
535 1 -2.908032297902415 6.6317159232850615 14.31816732054398 0 0 0
536 2 -1.9424785326363714 6.39961225372118 14.212905303029867 0 0 0
537 2 -2.960017710302825 7.393684832100975 13.663653750697618 0 0 0
675 2 -2.0841599417760066 10.84624887195475 12.81755826525973 0 0 0
804 2 7.864118656230634 9.097194577524965 14.778417529235831 0 0 0
540 2 -3.9037378571710044 6.78629537761596 18.18661595797525 0 0 0
541 1 -4.977477232032676 4.463731391380203 16.62591310621703 0 0 0
542 2 -4.010105850822511 4.649787232219134 16.52292461074052 0 0 0
543 2 -5.014721910338743 4.065291419383002 17.516580589531902 0 0 0
544 1 -2.3100347115842594 4.687101383553153 16.462178605655385 0 0 0
545 2 -1.6793559554254576 5.392147966444613 16.617899701026857 0 0 0
546 2 -2.043870486987486 4.018810613229549 17.159367905330832 0 0 0
547 1 0.8375073093393332 3.3336695257662603 16.579402734476957 0 0 0
548 2 1.0698461160245731 3.950182797800524 15.813769040025942 0 0 0
549 2 0.2642522503235783 2.683572302644518 16.18283144162896 0 0 0
550 1 -0.40015848202101023 1.4548388667645433 15.2005700442947 0 0 0
782 2 3.480900261023221 9.286427658679559 14.775612317354263 0 0 0
552 2 -1.2382463349500088 1.7947170757515654 14.855743373179472 0 0 0
553 1 2.3079624324331576 1.5134479818112643 18.045960624858346 0 0 0
554 2 1.9895318155354667 2.152665747529514 17.376221225078126 0 0 0
803 2 8.377713266039649 7.828569357856696 15.584543041809061 0 0 0
556 1 1.6745925835319713 4.6962207003417715 14.360887766793748 0 0 0
557 2 2.658721445246975 4.962126606924239 14.301985019692342 0 0 0
558 2 1.454972098569303 4.077134996116914 13.60683205793755 0 0 0
561 2 0.6542684519538252 3.800321399922849 18.13436282485073 0 0 0
562 1 -0.43343633452518315 6.658553271609826 16.760246279636597 0 0 0
563 2 0.4908791642224792 6.476096656484746 16.455896150966886 0 0 0
564 2 -0.3095955404162208 6.883233963755518 17.716989368141558 0 0 0
565 1 2.323124208616835 6.82010649586718 16.38001178646297 0 0 0
566 2 2.5989516839684166 7.532795955519879 16.9810317832315 0 0 0
567 2 2.820303368381914 5.983675809508931 16.625045109654597 0 0 0
568 1 2.9834284478273467 7.207237977601604 12.027667139336833 0 0 0
569 2 3.6809519490738256 6.69445783778245 12.423292204328131 0 0 0
570 2 2.480210267602568 7.627157969793628 12.753616318101797 0 0 0
571 1 4.220430442857875 5.179486744637018 13.437832597503549 0 0 0
572 2 4.204286852902344 4.295664879692869 13.02092782683863 0 0 0
573 2 5.113438203861416 5.414502224936264 13.852959477736931 0 0 0
574 1 1.4606225939729325 5.376118886605544 10.757346357046764 0 0 0
575 2 1.798269463605131 6.087435527360505 11.366413760786628 0 0 0
622 1 4.90164339629773 7.050591256337252 19.117345113279214 0 0 0
785 2 7.843207590603894 9.22917367501811 18.86094644182006 0 0 0
118 1 8.360558118721416 6.784938248632571 10.010025830999503 0 0 0
579 2 1.288716002395295 1.1617277413864469 14.319920780956332 0 0 0
183 2 -3.8589200026828188 10.024510807658602 19.03790322640757 0 0 0
583 1 4.079802555646153 2.889389219939738 12.011683656845177 0 0 0
584 2 4.334138191228824 3.3935910936194587 11.22300234167568 0 0 0
585 2 3.155958424966164 2.5585021685515574 11.957118348356552 0 0 0
586 1 1.245479831615993 2.7729580205955404 12.298795616734653 0 0 0
587 2 1.0530516756929882 3.37873897752377 11.584253462251597 0 0 0
588 2 0.7161402131167484 1.9503825163681812 12.203276097674467 0 0 0
589 1 6.96519759744524 4.297951281560657 12.095167570958543 0 0 0
590 2 7.77631541101259 4.811060289650363 12.287270723584387 0 0 0
591 2 6.774119018665166 3.8539882169835273 12.969033049943567 0 0 0
592 1 8.601925100135457 6.042679857360062 13.530026280037092 0 0 0
593 2 9.298674130912081 5.667452418534553 14.112031417046397 0 0 0
594 2 9.028809005792283 6.790664795314097 13.100735599227647 0 0 0
595 1 5.867599865121999 6.11110458379318 10.54845707482404 0 0 0
832 1 12.490964829753063 7.944327476808947 9.754169947437582 0 0 0
597 2 6.099782546043892 5.5026218734315915 11.27112654717914 0 0 0
598 1 6.44977691202679 3.33599397121898 14.501616250143027 0 0 0
599 2 6.593157342470151 3.9306059722972293 15.273617582627345 0 0 0
600 2 5.557434888655359 3.040462202025759 14.698830786188983 0 0 0
596 2 5.121243683353831 5.744877416372044 10.068435520000342 0 0 0
602 2 7.343820172513237 3.2762467090802616 10.608277516241305 0 0 0
604 1 8.84623227772205 1.100120296091127 12.096839333845052 0 0 0
78 2 0.7477358616617801 1.0547490393795924 19.012794231942888 0 0 0
606 2 7.936269220104593 1.3622966616886607 12.342886643742274 0 0 0
607 1 6.050041332625549 1.1096343652557723 12.167973273022417 0 0 0
608 2 5.399444431456914 1.8595458774545335 12.178342549273694 0 0 0
801 2 9.449980906987935 10.147737968620394 16.196733439866073 0 0 0
830 2 11.05563471885532 7.508839992678901 15.147499636010753 0 0 0
781 1 4.233430909836778 9.689282948300155 15.263560582880281 0 0 0
613 1 4.046957339586712 2.335786041350003 15.253326649354191 0 0 0
614 2 3.2733267735067386 2.1247164842163837 14.76155493598228 0 0 0
615 2 3.7944815741853213 3.097742874152617 15.861355978173146 0 0 0
616 1 6.823762523025876 2.3844712754150326 18.34302161004604 0 0 0
783 2 3.963879318552865 10.526902677563305 15.607010199752656 0 0 0
618 2 6.459980412026472 1.7062046224945766 17.726412866159443 0 0 0
619 1 6.144784512595621 6.77695636631566 14.339621754136514 0 0 0
620 2 7.018764578426751 6.434379048308731 14.150725351219613 0 0 0
621 2 6.067456917694003 7.369921295515906 13.530149539598009 0 0 0
624 2 5.023642185029111 7.517310238264397 18.197756657484653 0 0 0
625 1 3.8631944168088763 4.642296517303127 16.98083074811788 0 0 0
626 2 4.7619186338904 4.966304071786596 16.79141745228084 0 0 0
627 2 3.8659950027626158 4.3593497915182695 17.919606686543855 0 0 0
628 1 6.793283662046132 4.692088890110362 16.740542346029613 0 0 0
629 2 7.591074575154144 5.248461199304448 16.786735192104302 0 0 0
630 2 6.922667827681529 3.9539235978133447 17.36905924311231 0 0 0
631 1 10.406900494742949 3.0540122045904585 16.61043929776289 0 0 0
632 2 10.636220347875302 3.753509819658047 15.934765803335434 0 0 0
633 2 9.649870608064393 2.5901954316627904 16.157077630776783 0 0 0
634 1 8.38369540688094 1.6364674188605406 15.240261506264513 0 0 0
806 2 11.274985183340691 9.596485087849674 17.621327551976147 0 0 0
636 2 7.61345048053879 2.23009474955031 15.04069272563023 0 0 0
637 1 11.60524381257999 1.5042697444825173 18.37160985691765 0 0 0
638 2 11.126741052666036 2.072434824708715 17.756068721212245 0 0 0
807 2 -5.884186045668492 9.313689174518615 18.761085755182958 0 0 0
640 1 10.867807369878195 4.479564602532894 14.502274419696477 0 0 0
641 2 11.725736528537812 4.92895975867138 14.327960361889813 0 0 0
642 2 10.6912251797246 3.863706194225748 13.746757563202118 0 0 0
645 2 9.586162438877606 4.201677680885325 18.222221082129604 0 0 0
646 1 8.718615138209227 6.529494389323216 16.95105881899893 0 0 0
647 2 9.723017829138955 6.496898610145922 16.868787167496695 0 0 0
648 2 8.600279791289227 7.135655439102471 17.72722041174405 0 0 0
649 1 11.464641046984605 6.555601360065796 16.712160335333532 0 0 0
650 2 11.890413915750047 7.23940264489268 17.224831999865597 0 0 0
651 2 12.169191668342906 5.853252710169341 16.66126187633569 0 0 0
652 1 11.919199950250631 6.890049270351108 12.1153595865751 0 0 0
653 2 12.423911634328684 6.146326039677386 12.6303764433368 0 0 0
654 2 11.482963091909193 7.306009024854275 12.916788422305588 0 0 0
655 1 13.309058272688288 5.217781366390628 13.584895821945716 0 0 0
656 2 13.472389395102299 4.349863691627503 13.106710496453706 0 0 0
657 2 -4.062334581762274 5.7017218011670385 13.811289242199285 0 0 0
658 1 10.781643751069375 5.269040634999702 10.43227506192073 0 0 0
659 2 11.117506073469555 5.945794543346196 11.044754962227573 0 0 0
525 2 -3.4779510438921455 0.3092584445062328 11.543247232480514 0 0 0
528 2 -4.241492792531892 0.863191129904975 16.15932149573805 0 0 0
715 1 1.0484382114443713 10.630172363262618 16.68477522393774 0 0 0
663 2 10.131816136497873 1.0676150554562274 14.458224838583215 0 0 0
835 1 13.724828594633333 10.40040453372276 11.852291208598988 0 0 0
667 1 13.13873328383824 2.9449878569840395 12.073940997633791 0 0 0
668 2 13.180871029011385 3.173963592664538 11.130379949968818 0 0 0
669 2 12.209476488533848 2.7427006376334777 12.200508144284669 0 0 0
670 1 10.423656101473036 3.1103034316816336 12.204663701582339 0 0 0
671 2 10.290730103378998 3.787046058709708 11.527779483987189 0 0 0
672 2 9.80772557780046 2.357085390189088 12.02942445549968 0 0 0
555 2 2.9870126371925867 2.022899071462021 18.544890776826154 0 0 0
837 2 12.800771280670833 10.352045681446416 11.9942124094329 0 0 0
684 2 -3.4396370760716963 10.032846606261494 14.575641428540104 0 0 0
688 1 -0.1167435274506026 8.351080010492751 11.804175179411326 0 0 0