LAMMPS data file via write_data, version 15 Apr 2020, timestep = 100000

1944 atoms
2 atom types

3.3608030891207008e-01 3.9646024691086573e+01 xlo xhi
1.5925905558923859e-01 1.9831793944410727e+01 ylo yhi
2.0982503090654880e-01 2.0590946969093068e+01 zlo zhi
4.0093828734854651e-03 -4.6133657694483274e-04 1.3415618724634585e-03 xy xz yz

Masses

1 16
2 2

Atoms # atomic

1156 1 1.7214045661157975e+01 1.4407499214120486e+01 1.0252806539761529e+01 0 0 0
4 1 4.2981517171072330e+00 1.5364803854784221e+00 3.3730664135549535e+00 0 0 0
5 2 4.4285929992256658e+00 2.4937321024636891e+00 3.2127256670038817e+00 0 0 0
6 2 4.1329747422934986e+00 1.0423824051833392e+00 2.5315159611262330e+00 0 0 0
7 1 6.2379375770695686e+00 4.8101372380319898e+00 5.4319669799689994e+00 0 0 0
8 2 7.1968099061142912e+00 4.6597252948892178e+00 5.1720230635245503e+00 0 0 0
9 2 6.1387632221949042e+00 4.5432077983363479e+00 6.3503854777552489e+00 0 0 0
10 1 1.7479522260712073e+00 4.3697544754329254e+00 4.1500197880854346e+00 0 0 0
11 2 1.3867243123745823e+00 4.9589976978095418e+00 3.4532372507872648e+00 0 0 0
12 2 1.4526281474454388e+00 3.4817773191569965e+00 3.8031111389866972e+00 0 0 0
13 1 4.9129365714878865e+00 6.1136433885281258e+00 1.8199731141225790e+00 0 0 0
14 2 5.9058099756770774e+00 6.0991420225625586e+00 1.8876274700235023e+00 0 0 0
15 2 4.6444270836917143e+00 5.4145616402859043e+00 2.5283243863116058e+00 0 0 0
16 1 4.3559243753788257e+00 4.1059156516537634e+00 3.5998353432664323e+00 0 0 0
17 2 3.4784061064849072e+00 4.1709258156762870e+00 3.9877798745239805e+00 0 0 0
18 2 5.0197429497974202e+00 4.2028307548118233e+00 4.3003811485210512e+00 0 0 0
19 1 7.7876664377062466e-01 6.1324635991934153e+00 2.1877401658425306e+00 0 0 0
21 2 1.4756056043450336e+00 5.8560876549712972e+00 1.4762815541242975e+00 0 0 0
22 1 2.2076720098864970e+00 1.1938138495173196e+00 4.9760436443819351e+00 0 0 0
23 2 1.2537695462043057e+00 1.0208393208712492e+00 4.6922905151641316e+00 0 0 0
24 2 2.7681685141323893e+00 1.3776355536087317e+00 4.1928640880877417e+00 0 0 0
25 1 2.9431197416299879e+00 5.4473423959533713e+00 6.7891244318120192e+00 0 0 0
26 2 3.7972549916974669e+00 5.6865883821021708e+00 7.2057188013105620e+00 0 0 0
27 2 2.9592051591829880e+00 4.4619763014408340e+00 6.6262860530427918e+00 0 0 0
28 1 6.2488712784041729e+00 1.0623215360111700e+00 5.1895049256173662e+00 0 0 0
29 2 6.1860121860198962e+00 1.9784844457901656e+01 5.4621978773679976e+00 0 0 0
30 2 5.5669938676436459e+00 1.1491794022850947e+00 4.5109473214939104e+00 0 0 0
31 1 1.3593454589740268e+00 2.2406811178748303e+00 2.3023924934686564e+00 0 0 0
33 2 1.8821200731454517e+00 2.4724300843026983e+00 1.5013293849001963e+00 0 0 0
70 1 1.2032025657907644e+01 2.8316386167421155e+00 5.2038457800882698e-01 0 0 0
1187 2 1.9328471209680696e+01 1.5626953936740952e+01 7.7455801392582497e+00 0 0 0
36 2 6.0181339658193833e+00 2.6845138715955867e+00 1.3662810004399759e+00 0 0 0
35 2 4.6244800975035343e+00 2.7656541644007677e+00 5.8266314800351859e-01 0 0 0
289 1 1.5875655002005452e+01 9.1428689331217381e+00 6.7240148648199927e-01 0 0 0
505 1 1.6220261508494744e+01 1.5518387397500273e+01 4.5378400389815909e-01 0 0 0
40 1 1.1408750177886077e+01 1.3980877149205830e+00 3.3264935320526936e+00 0 0 0
41 2 1.0470908984095837e+01 1.3421164141774600e+00 3.5800032807525199e+00 0 0 0
42 2 1.1484724929430032e+01 6.6879355756773318e-01 2.6699453563289288e+00 0 0 0
43 1 1.2794629558306267e+01 4.5338731947641540e+00 5.7835802016050586e+00 0 0 0
44 2 1.2164683744553194e+01 4.4041375911578404e+00 5.0757937729092397e+00 0 0 0
45 2 1.2948282089467680e+01 5.5122875186898170e+00 5.6904178343784402e+00 0 0 0
46 1 8.3094651591180337e+00 4.3247575847887543e+00 3.9836236942650429e+00 0 0 0
47 2 9.2895948150190293e+00 4.3498860076743648e+00 4.1131843623289726e+00 0 0 0
48 2 8.1237391577888936e+00 4.9952921828510801e+00 3.2927205081946136e+00 0 0 0
49 1 1.1573665785843938e+01 5.8806731535095205e+00 1.4129834668018135e+00 0 0 0
50 2 1.2514135871592035e+01 5.6087830952232718e+00 1.3886069055705021e+00 0 0 0
51 2 1.1368839422348126e+01 6.6391053784093943e+00 1.9978212680435983e+00 0 0 0
52 1 1.1332423550594305e+01 4.1865273194604864e+00 3.6223229679007196e+00 0 0 0
53 2 1.1232650058186996e+01 4.8124150784658042e+00 2.8827420739015075e+00 0 0 0
54 2 1.1538711827831836e+01 3.3014897986708562e+00 3.3036997451068553e+00 0 0 0
55 1 7.7330285559124654e+00 6.2043423000768163e+00 1.9975983342223451e+00 0 0 0
56 2 8.2909058592224376e+00 5.9061098885316294e+00 1.2470885844103816e+00 0 0 0
57 2 7.8419437632351841e+00 7.1477217689978030e+00 2.0740476235594905e+00 0 0 0
58 1 9.0795908530738281e+00 1.2847476290441462e+00 4.7949707155409866e+00 0 0 0
59 2 9.2479946779545923e+00 2.0217420811589415e+00 5.4364908146110436e+00 0 0 0
60 2 8.1017704355851414e+00 1.3097010348257667e+00 4.6611453656442725e+00 0 0 0
61 1 9.7566216912430814e+00 5.5083100473809017e+00 6.5828590311029886e+00 0 0 0
62 2 9.5780653711085435e+00 4.5344691321702459e+00 6.6443804586232513e+00 0 0 0
63 2 1.0515840879825044e+01 5.6855621156059248e+00 7.1389946548242804e+00 0 0 0
64 1 1.2731330758890413e+01 7.9005968250313341e-01 5.5645082156624968e+00 0 0 0
65 2 1.3677641767986881e+01 9.5879847660706086e-01 5.4038682269797196e+00 0 0 0
66 2 1.2272540772701667e+01 1.1122517511488859e+00 4.7496726429609453e+00 0 0 0
67 1 7.3321185377814189e+00 2.6657845088721874e+00 2.3804251875771594e+00 0 0 0
68 2 7.8907429925141850e+00 3.0623157306132822e+00 3.0481736134510995e+00 0 0 0
69 2 7.5511188172372607e+00 1.7307503386610563e+00 2.3103254922157732e+00 0 0 0
897 2 5.1713935015846957e-01 9.1472378191258432e+00 8.4678296585077337e+00 1 0 0
72 2 1.2841736558034862e+01 2.6024814715663576e+00 1.0546643868254657e+00 0 0 0
666 2 4.5520952423424079e+00 3.2488673913190245e+00 1.0249522541716725e+01 0 0 0
322 1 1.8552004564587769e+01 9.3331701718506181e+00 7.7837148987501703e-01 0 0 0
75 2 1.5251243635865029e+01 2.3457117972788564e+00 5.9611711783046806e-01 0 0 0
76 1 1.7690924010998636e+01 1.4018211408643764e+00 3.3778105152249842e+00 0 0 0
77 2 1.8357049075128458e+01 1.0888549109123833e+00 4.0509760212811372e+00 0 0 0
78 2 1.7504266407664200e+01 6.9277720803080001e-01 2.6880576556299740e+00 0 0 0
79 1 1.9340722279207561e+01 4.7852810092591263e+00 5.4864029422642311e+00 0 0 0
80 2 1.8990216362202442e+01 5.6812705785581850e+00 5.6489022932164952e+00 0 0 0
81 2 1.9116222291975468e+01 4.2482617170385888e+00 6.2736465419469321e+00 0 0 0
82 1 1.4846565002046612e+01 3.7135080861941736e+00 3.7579578343231015e+00 0 0 0
83 2 1.5750000027829550e+01 3.9712876713342378e+00 4.1253751669839183e+00 0 0 0
84 2 1.4180619965221096e+01 3.9395362799177862e+00 4.4244534124644055e+00 0 0 0
85 1 1.7758756141708787e+01 6.0189408761046828e+00 1.7670826118154119e+00 0 0 0
86 2 1.7671595409814412e+01 5.2974552047881263e+00 2.4546571551298557e+00 0 0 0
87 2 1.7129694433011867e+01 5.8541509641024634e+00 1.0529831839643187e+00 0 0 0
88 1 1.7511451054498483e+01 4.3134128678574326e+00 3.6964993169267886e+00 0 0 0
89 2 1.8212277350661285e+01 4.4441636877504749e+00 4.3513675522790516e+00 0 0 0
90 2 1.7704886938238960e+01 3.4160660945781935e+00 3.3757112860506711e+00 0 0 0
91 1 1.4266721990243479e+01 5.9237961999092050e+00 2.1118601862853836e+00 0 0 0
92 2 1.4910088524828902e+01 5.8320669025187160e+00 1.3480262703328894e+00 0 0 0
93 2 1.4617936049759342e+01 5.3928731790831161e+00 2.8163881850551458e+00 0 0 0
94 1 1.5410868762281686e+01 1.0359438231680873e+00 5.3042476980404212e+00 0 0 0
95 2 1.6110559823287566e+01 1.2867906075217823e+00 4.7048268702981373e+00 0 0 0
96 2 1.5556296943694891e+01 1.5990558519690352e+00 6.0660546821091144e+00 0 0 0
97 1 1.6020047959816765e+01 5.3954413948958395e+00 6.8319503736350029e+00 0 0 0
98 2 1.5371759247634438e+01 5.6971805856754925e+00 7.5021869439613420e+00 0 0 0
99 2 1.5911093540651814e+01 6.0462561641639248e+00 6.1491770383475579e+00 0 0 0
100 1 1.9307082954868804e+01 9.0539991071223880e-01 5.4666947724014445e+00 0 0 0
102 2 1.9253347190080195e+01 1.9604387781473271e+01 5.6366262070683364e+00 0 0 0
103 1 1.4183283972027162e+01 1.9180445348100228e+00 1.8888054016247371e+00 0 0 0
104 2 1.4606640386002526e+01 2.2784128636048164e+00 2.6857082549272397e+00 0 0 0
105 2 1.4318514182040436e+01 9.6753473254535804e-01 1.9347040576048542e+00 0 0 0
681 2 1.3860346552535889e+00 2.7684210806861955e+00 9.8163577451733808e+00 0 0 0
228 2 8.7010423926001090e-01 1.0925449800077409e+01 4.5957634410289421e+00 0 0 0
513 2 1.9921162968114707e+01 1.7662217506517013e+01 4.9145183227622917e+00 0 0 0
34 1 5.5803580409610909e+00 3.0156346668089431e+00 5.4653384826045337e-01 0 0 0
220 1 4.5539064127443236e+00 8.2421323113475022e+00 3.4889935747949634e+00 0 0 0
221 2 4.6916673957332904e+00 7.6897344990679528e+00 2.6390226185632604e+00 0 0 0
222 2 3.7506117229483644e+00 7.9616590109718937e+00 3.8734202232188575e+00 0 0 0
223 1 6.1196816139516104e+00 1.1744960736918973e+01 5.7915280741953596e+00 0 0 0
224 2 5.3107049427220270e+00 1.1455342737786781e+01 5.3191274263772854e+00 0 0 0
225 2 6.1267134438017719e+00 1.2720070474096378e+01 5.6078822284601406e+00 0 0 0
226 1 1.6358458770828530e+00 1.0823330904034096e+01 3.9906834819031678e+00 0 0 0
227 2 1.4454478615295749e+00 9.9462875412881804e+00 3.4554392793907374e+00 0 0 0
471 2 1.0608913039322964e+01 1.5838041981924020e+01 5.7522205565057694e-01 0 0 0
229 1 5.0158689167867827e+00 1.2497468562681732e+01 2.0516230545941401e+00 0 0 0
230 2 4.7104842718082462e+00 1.2075709067995964e+01 2.9315526424142124e+00 0 0 0
231 2 5.9848937567253504e+00 1.2682647508740395e+01 2.0660162337575114e+00 0 0 0
232 1 4.1914854791624965e+00 1.0759803974799073e+01 4.2126334943172266e+00 0 0 0
233 2 4.3688084669642704e+00 9.8649814042975805e+00 3.8822677536179020e+00 0 0 0
234 2 3.2627220236777918e+00 1.0789837310073874e+01 4.2192650804904677e+00 0 0 0
235 1 8.9319111392782402e-01 1.2489676613175519e+01 2.0211342876851388e+00 0 0 0
236 2 1.1882954568035751e+00 1.1897800657223645e+01 2.7506094210375731e+00 0 0 0
237 2 1.0914560218940492e+00 1.3395027783986947e+01 2.2900045418791528e+00 0 0 0
238 1 2.4017082455558931e+00 7.6474538798792002e+00 5.0239363790982212e+00 0 0 0
239 2 2.6639047975269428e+00 6.8092573435254611e+00 5.4535902822020752e+00 0 0 0
240 2 1.4184776690563601e+00 7.6160770654973051e+00 5.1116081179938453e+00 0 0 0
241 1 2.6938340067261688e+00 1.2133929023214085e+01 7.1222493551656676e+00 0 0 0
242 2 2.9246381396898409e+00 1.1134448432712350e+01 6.9743000947876785e+00 0 0 0
243 2 1.9910677257521503e+00 1.2135260275475339e+01 7.7813932892534199e+00 0 0 0
244 1 6.4829916642059038e+00 7.7459659027697931e+00 5.3933896714852221e+00 0 0 0
245 2 6.3168061060165366e+00 6.7990171936292700e+00 5.3906644940763941e+00 0 0 0
246 2 5.8752269963338222e+00 8.0050986318864830e+00 4.6638196864535741e+00 0 0 0
247 1 1.2340870928547780e+00 8.7296364318641793e+00 2.2111672989160742e+00 0 0 0
248 2 1.8585611381446803e+00 8.8085599380657182e+00 1.4070214542188422e+00 0 0 0
249 2 1.0710574414203666e+00 7.8271653406209172e+00 2.4501580000677121e+00 0 0 0
904 1 1.1063398364273256e+01 8.1312309761375179e+00 1.0127840266744474e+01 0 0 0
251 2 6.6674481069949145e+00 9.2409527707397530e+00 1.2409448356996209e+00 0 0 0
1611 2 1.4946444776802245e+01 1.1889133370748281e+01 8.1519302414625239e-01 0 0 0
1 1 2.9734460205496962e+00 2.6240010643118903e+00 2.4662931436986044e-01 0 0 0
256 1 1.1184868185168897e+01 7.8851300973299265e+00 3.1811397595392990e+00 0 0 0
257 2 1.0415189873928689e+01 7.8316496398126958e+00 3.7996945601476022e+00 0 0 0
258 2 1.1912419511567839e+01 7.6197907319872398e+00 3.7562542164602122e+00 0 0 0
259 1 1.2728317402213383e+01 1.1492610794794096e+01 5.5984705290348655e+00 0 0 0
260 2 1.1962000197321164e+01 1.1171840068359391e+01 5.0267275622334733e+00 0 0 0
261 2 1.3426289125262846e+01 1.1137050112142784e+01 5.0293161312746664e+00 0 0 0
262 1 8.0385045858998367e+00 1.0861304681849884e+01 4.1071388748200421e+00 0 0 0
263 2 8.9937440068298180e+00 1.0803525283196489e+01 4.2758241860470276e+00 0 0 0
264 2 7.4861769054110132e+00 1.1042441531594141e+01 4.8532230029757892e+00 0 0 0
265 1 1.1428458523739799e+01 1.2530964728359777e+01 1.9383178813080861e+00 0 0 0
266 2 1.2441801018203776e+01 1.2372859458465918e+01 2.0577308334031903e+00 0 0 0
267 2 1.1248813462698424e+01 1.3403375716855356e+01 2.3991127098547138e+00 0 0 0
268 1 1.0820929695259590e+01 1.0576860619835553e+01 3.8553877909706715e+00 0 0 0
269 2 1.0968642399455383e+01 9.6938512439833868e+00 3.4542736167080519e+00 0 0 0
270 2 1.0899519954432819e+01 1.1229861133442940e+01 3.1481041863066985e+00 0 0 0
271 1 7.4882919833360697e+00 1.2740976732507018e+01 2.2479019082126022e+00 0 0 0
272 2 7.5556744834739691e+00 1.2099843597642232e+01 3.0317062203651997e+00 0 0 0
273 2 7.6340728542349412e+00 1.3664522610255670e+01 2.5466805655131384e+00 0 0 0
274 1 9.2147782022023961e+00 7.5199899624104258e+00 4.9717504867207598e+00 0 0 0
275 2 8.2433370712052927e+00 7.6687090137191252e+00 4.7621101602999252e+00 0 0 0
276 2 9.2319281695617690e+00 6.6698951346713704e+00 5.5582437096242687e+00 0 0 0
277 1 9.6657033389106743e+00 1.1998614967515543e+01 6.8526299747866588e+00 0 0 0
278 2 9.6987170340427120e+00 1.0996304396283151e+01 6.7657807153534790e+00 0 0 0
279 2 1.0456854609144733e+01 1.2255110068808767e+01 7.3838398285027331e+00 0 0 0
280 1 1.3112514761215351e+01 7.2345132970020360e+00 5.2308786003717795e+00 0 0 0
281 2 1.4123378938792721e+01 7.3162445346506004e+00 5.1717421322179886e+00 0 0 0
282 2 1.2829188333325163e+01 7.8670734236114530e+00 5.9917751233515633e+00 0 0 0
283 1 7.7912224361272777e+00 8.9960370984123337e+00 2.1090381551342547e+00 0 0 0
284 2 7.8340221475002405e+00 9.6440036224416961e+00 2.8006321997777164e+00 0 0 0
285 2 8.5349773152958726e+00 9.1370776332498735e+00 1.5098741460918734e+00 0 0 0
1158 2 1.7232218905620559e+01 1.5366751588923988e+01 1.0191212166858165e+01 0 0 0
700 1 1.1068024107271706e+01 3.9964909241920989e+00 1.0068545698822097e+01 0 0 0
940 1 1.7640795248341810e+01 7.7769018558002232e+00 1.0340527423733670e+01 0 0 0
641 2 6.0069672072086089e-01 1.4209924224516410e+01 5.1134486993822881e+00 0 0 0
291 2 1.5255095343961516e+01 8.9303744004480556e+00 1.4054663268857379e+00 0 0 0
292 1 1.7325651270206059e+01 7.8832592439809757e+00 3.4617758064141788e+00 0 0 0
293 2 1.7325436010000093e+01 8.8368442496819775e+00 3.2626101624398451e+00 0 0 0
294 2 1.7497383783492680e+01 7.3673781954065802e+00 2.6937453610294160e+00 0 0 0
295 1 1.9066447860964288e+01 1.1194672053904165e+01 5.4082467754238550e+00 0 0 0
296 2 1.8915203103465952e+01 1.0708248814303627e+01 6.2265711093130474e+00 0 0 0
875 2 1.3784051583470982e+00 9.6922613519115988e+00 1.0165482282015228e+01 0 0 0
298 1 1.4760845782061530e+01 1.0616417559629959e+01 3.9301821099938077e+00 0 0 0
299 2 1.5704077375738661e+01 1.0618177006741851e+01 3.9565352440836157e+00 0 0 0
300 2 1.4491209631328365e+01 9.8121163428362639e+00 3.4839595228471545e+00 0 0 0
301 1 1.7880647268932329e+01 1.2613701950930109e+01 1.7367485180939712e+00 0 0 0
302 2 1.7230329647312963e+01 1.2511993223806725e+01 1.0015017152995671e+00 0 0 0
303 2 1.7681980888382256e+01 1.3419862225026833e+01 2.2578121908431501e+00 0 0 0
304 1 1.7382319772307831e+01 1.0518055549846791e+01 3.5426426306832970e+00 0 0 0
305 2 1.7984211111253980e+01 1.0747082466700983e+01 4.2700573767038472e+00 0 0 0
306 2 1.7462505186853146e+01 1.1214916629751212e+01 2.8405627222126877e+00 0 0 0
307 1 1.4191381155701487e+01 1.2353387416776300e+01 2.0559216231412809e+00 0 0 0
308 2 1.4370161686925089e+01 1.3298868173577949e+01 2.2795619121071371e+00 0 0 0
309 2 1.4475789858398050e+01 1.1776132034034685e+01 2.7913302144075303e+00 0 0 0
310 1 1.5662863751229557e+01 7.6182133877877014e+00 5.4183248516692233e+00 0 0 0
311 2 1.6282183951779523e+01 7.6891141062318393e+00 4.6264370131289150e+00 0 0 0
312 2 1.5920251608841218e+01 8.4323268694168565e+00 6.0291732591072602e+00 0 0 0
313 1 1.5924601297570900e+01 1.2084963031735290e+01 6.7524507922764156e+00 0 0 0
314 2 1.5303691021209026e+01 1.2362798532810649e+01 7.5577465320808823e+00 0 0 0
315 2 1.6766587172123710e+01 1.2181356199519485e+01 7.2613669364644693e+00 0 0 0
316 1 1.9145579011106594e+01 7.5626432831766310e+00 5.4223249216151013e+00 0 0 0
317 2 1.8488252398143079e+01 7.7882331409611512e+00 4.7424026054321047e+00 0 0 0
318 2 1.8940052261045160e+01 8.1911744077337953e+00 6.1668244402829755e+00 0 0 0
319 1 1.4015095996925277e+01 8.5425952262587987e+00 2.4197561472180817e+00 0 0 0
320 2 1.4163039400799224e+01 7.5527301935884292e+00 2.4585237996731615e+00 0 0 0
321 2 1.3190980862831207e+01 8.8135089423354156e+00 1.9770309506598280e+00 0 0 0
141 2 1.9779313849153443e+01 2.7497211630596317e+00 1.6608291269725746e+00 0 0 0
1120 1 1.1129468504084921e+01 1.4574476295120453e+01 9.8607265648788012e+00 0 0 0
659 2 1.3395296046070311e+00 4.7512654656027333e+00 9.9324912238592660e+00 0 0 0
323 2 1.9212932105030799e+01 9.0474468909179961e+00 1.4987251642700068e+00 0 0 0
436 1 4.4845408597409842e+00 1.4984625490102090e+01 3.4620899095493392e+00 0 0 0
437 2 3.7148176585220543e+00 1.4683200906345688e+01 3.9443482046967167e+00 0 0 0
438 2 4.6318585767364073e+00 1.4301075184158670e+01 2.8088695824025978e+00 0 0 0
439 1 6.3643743198388520e+00 1.7990863770105559e+01 5.6253918008628991e+00 0 0 0
440 2 6.2457277948024341e+00 1.7470581022650293e+01 6.4240527853493008e+00 0 0 0
441 2 5.5943137862520791e+00 1.7724212393157462e+01 5.0771601938429285e+00 0 0 0
442 1 1.6053868247211014e+00 1.7593368625654954e+01 3.9373941995208455e+00 0 0 0
443 2 2.5473529096278371e+00 1.7524687694516658e+01 4.1521273026649732e+00 0 0 0
444 2 1.0776590265274582e+00 1.7710648779290356e+01 4.7406855184468570e+00 0 0 0
445 1 4.7225116235786846e+00 1.9001844468078595e+01 1.5112640807735276e+00 0 0 0
446 2 4.1776483363421697e+00 1.8861844693560116e+01 7.5686036164727277e-01 0 0 0
447 2 5.6416735298745140e+00 1.9295708780123295e+01 1.3699882660627734e+00 0 0 0
448 1 4.3155127069385699e+00 1.7553682806571491e+01 3.8424117535767190e+00 0 0 0
449 2 4.3399334719724614e+00 1.6685625606538380e+01 3.4473021545288840e+00 0 0 0
450 2 4.5018844233380300e+00 1.8242909362124674e+01 3.1655133666768656e+00 0 0 0
451 1 1.1495454226607371e+00 1.9282531431342132e+01 1.9582043650694718e+00 0 0 0
452 2 1.3211666045654820e+00 1.8789868524843790e+01 2.7685054515622278e+00 0 0 0
453 2 1.4041455007143806e+00 5.2057070285942908e-01 2.1623046684702194e+00 0 0 0
454 1 2.2320953861772530e+00 1.4097222872393264e+01 5.1771908697452425e+00 0 0 0
455 2 2.4751060512392762e+00 1.3279076412273321e+01 5.6375677168317342e+00 0 0 0
456 2 2.5209680327734896e+00 1.4766574209353859e+01 5.8688916971606337e+00 0 0 0
457 1 3.2115472175707125e+00 1.8895807529177187e+01 6.5990785543838859e+00 0 0 0
458 2 2.9425279018676598e+00 1.9534475800671608e+01 5.9342499440488439e+00 0 0 0
459 2 2.4663083323237047e+00 1.8995641670200850e+01 7.2815624631634615e+00 0 0 0
460 1 6.3033140499938964e+00 1.4301591389488657e+01 5.1822209372177683e+00 0 0 0
461 2 5.8074544463689390e+00 1.4581981244183892e+01 4.3826273697157996e+00 0 0 0
462 2 7.2743958392729482e+00 1.4440843139378847e+01 5.0274383094381623e+00 0 0 0
463 1 1.3645286924161355e+00 1.5320659247075145e+01 2.5232510252738591e+00 0 0 0
464 2 2.0890022437481193e+00 1.5343469430191238e+01 1.8316246219154229e+00 0 0 0
465 2 1.4724805807512169e+00 1.6151583154591840e+01 3.0738764606405526e+00 0 0 0
917 2 1.0961004967891453e+01 9.8996875827573945e+00 1.0233460814667669e+01 0 0 0
732 2 1.4745229708993918e+01 5.2576627720543847e+00 1.0093502575424495e+01 0 0 0
467 2 4.6617651760502321e+00 1.5955096367495942e+01 7.3529604669239068e-01 0 0 0
106 1 1.8348019899578762e+01 3.0236948065264837e+00 4.6410736157969085e-01 0 0 0
1097 2 3.4721294520057322e+00 1.7418002298971473e+01 1.0240576810406770e+01 0 0 0
472 1 1.0998639871442807e+01 1.4521603248640941e+01 3.5387638162091721e+00 0 0 0
473 2 1.1123676977410378e+01 1.5442013416710852e+01 3.2315840324182843e+00 0 0 0
474 2 1.0135514807504832e+01 1.4476887219283851e+01 4.0605189429952855e+00 0 0 0
475 1 1.2818090266993872e+01 1.7761547121901256e+01 5.3622924579734690e+00 0 0 0
476 2 1.2754576418648300e+01 1.8752049059309233e+01 5.5543624232841617e+00 0 0 0
477 2 1.3235816345597216e+01 1.7337740717998894e+01 6.1124163753486727e+00 0 0 0
478 1 8.2174423202270912e+00 1.7648875053725259e+01 3.6692551199664729e+00 0 0 0
479 2 7.7039220099220032e+00 1.7757928212692118e+01 4.5245566636732830e+00 0 0 0
480 2 9.2101593688917660e+00 1.7665008021769058e+01 3.8244761802734302e+00 0 0 0
481 1 1.1448965365471851e+01 1.9003212176822320e+01 1.6021218205163141e+00 0 0 0
482 2 1.2406951027583549e+01 1.8805723593251759e+01 1.4644446002612319e+00 0 0 0
483 2 1.0923780166685422e+01 1.8845645848251529e+01 7.8892995783765785e-01 0 0 0
484 1 1.0830361918248306e+01 1.7119749739566835e+01 3.5270866348742307e+00 0 0 0
485 2 1.0982592466135246e+01 1.7808644392353866e+01 2.8158195851490424e+00 0 0 0
486 2 1.1459230604047050e+01 1.7292748684784815e+01 4.2874152904973757e+00 0 0 0
487 1 7.5266184193991172e+00 1.9713128158672550e+01 1.8230062512948375e+00 0 0 0
488 2 7.6430370682266506e+00 1.9031334216449213e+01 2.5615638167771198e+00 0 0 0
489 2 8.1994006530300769e+00 1.9373102290757700e+01 1.1625527799619451e+00 0 0 0
490 1 9.0704426723911737e+00 1.4068387726430636e+01 5.3423408505379308e+00 0 0 0
491 2 9.3921947540690791e+00 1.4842501902751801e+01 5.8796572342828339e+00 0 0 0
492 2 9.3474386755040104e+00 1.3274323707293565e+01 5.8217755724022346e+00 0 0 0
493 1 9.6731717687668546e+00 1.8739010806613638e+01 6.4285908146876389e+00 0 0 0
494 2 8.9531696130693152e+00 1.8752632497926204e+01 7.0529796251429575e+00 0 0 0
495 2 9.5411057875671990e+00 1.9628586616131820e+01 6.0013331609102263e+00 0 0 0
496 1 1.2873033325435458e+01 1.4089747284038252e+01 5.3149613217741676e+00 0 0 0
497 2 1.2779541706980170e+01 1.3153998461115444e+01 5.5624741569116720e+00 0 0 0
498 2 1.2172505700037059e+01 1.4244352165550939e+01 4.6967449173271412e+00 0 0 0
499 1 7.7940712336689995e+00 1.5492930106004790e+01 2.2624812308379028e+00 0 0 0
500 2 8.0896234155137599e+00 1.6280855430244163e+01 2.8128098626035674e+00 0 0 0
501 2 6.9921341616620181e+00 1.5820765590600304e+01 1.7946629281591462e+00 0 0 0
1574 2 8.7126332183230311e+00 1.2253994536799150e+01 8.3415199250962024e-01 0 0 0
252 2 5.0660794741254582e+00 9.6256907484431711e+00 9.3909227630643610e-01 0 0 0
506 2 1.5547843337226082e+01 1.5291812773747605e+01 1.1258485434113665e+00 0 0 0
508 1 1.7377713109492280e+01 1.4640782920813770e+01 3.4133793411869995e+00 0 0 0
509 2 1.6657800848647522e+01 1.4234187513380672e+01 3.9953279664245067e+00 0 0 0
510 2 1.8203056948861775e+01 1.4402040981812545e+01 3.9634780227303779e+00 0 0 0
511 1 1.9212288578079054e+01 1.7969306189001710e+01 5.5965586581365647e+00 0 0 0
512 2 1.9134949459398701e+01 1.7249758833322726e+01 6.2511374918330294e+00 0 0 0
470 2 9.0989797679392730e+00 1.5710393727170182e+01 1.2238045596115723e+00 0 0 0
514 1 1.4614335544437871e+01 1.7173250920664682e+01 3.5846301343718170e+00 0 0 0
515 2 1.5524672051453935e+01 1.7215695093359148e+01 3.9129651057605810e+00 0 0 0
516 2 1.3987400746137478e+01 1.7377706508137358e+01 4.3150315257749172e+00 0 0 0
517 1 1.7897110391512449e+01 1.9094489616270859e+01 1.6750102316321134e+00 0 0 0
518 2 1.8851476254920268e+01 1.9221754907063957e+01 1.6694991603846812e+00 0 0 0
519 2 1.7731475668317422e+01 1.8313572862801831e+01 2.2876452903653806e+00 0 0 0
520 1 1.7390481067570239e+01 1.7301817203340697e+01 3.6379594171226119e+00 0 0 0
521 2 1.8001639323971087e+01 1.7551397670173817e+01 4.3712354698230778e+00 0 0 0
522 2 1.7355178360582933e+01 1.6287659480687076e+01 3.6654287358685589e+00 0 0 0
523 1 1.4150389726729500e+01 1.8909695987393892e+01 1.4908475364515965e+00 0 0 0
524 2 1.4350130766302858e+01 1.8364990788108191e+01 2.2989539091587505e+00 0 0 0
525 2 1.4651005589558993e+01 1.8465602719493820e+01 7.9784398346652341e-01 0 0 0
526 1 1.5363414341186399e+01 1.3816765129739608e+01 4.7550703981166480e+00 0 0 0
527 2 1.5591771025186715e+01 1.3155595915570908e+01 5.4472405771787695e+00 0 0 0
528 2 1.4444222295291162e+01 1.4035081108438121e+01 4.7245739857474804e+00 0 0 0
529 1 1.5693835705605922e+01 1.8464304802009650e+01 6.4920199302006658e+00 0 0 0
530 2 1.5160539787409400e+01 1.8746248887671538e+01 7.2427691598594492e+00 0 0 0
531 2 1.5622324237035130e+01 1.9195373664726596e+01 5.8471563918759957e+00 0 0 0
532 1 1.9313222222852918e+01 1.3995892551832734e+01 5.0555192880849393e+00 0 0 0
533 2 1.9074542934661071e+01 1.4582287317899032e+01 5.8032793133192451e+00 0 0 0
534 2 1.9082380998367672e+01 1.3066963418922573e+01 5.2125270827807402e+00 0 0 0
535 1 1.4331011220176933e+01 1.4984700214299748e+01 2.2069020557753571e+00 0 0 0
536 2 1.4418018223883774e+01 1.5791637612311012e+01 2.7768850365527085e+00 0 0 0
537 2 1.3693060107909004e+01 1.5224671042561335e+01 1.4913718051410214e+00 0 0 0
39 2 8.6602136044748690e+00 2.9044062916082138e+00 9.3443132709293941e-01 0 0 0
188 2 4.8280953009535299e-01 4.6093129605663918e+00 5.2464637079438790e+00 0 0 0
502 1 1.2593132778663341e+01 1.5765123996177511e+01 4.0994702079253981e-01 0 0 0
1185 2 1.5079661874433452e+01 1.5454604458314504e+01 8.4670680775412883e+00 0 0 0
649 1 2.7421118176669754e+00 2.9057074144993678e+00 6.8901705272086851e+00 0 0 0
650 2 3.6739523893555721e+00 2.7370256234367791e+00 7.0254979280067458e+00 0 0 0
651 2 2.5326370206573006e+00 2.4389999925969321e+00 6.0364017195438509e+00 0 0 0
696 2 8.1558527805985470e+00 4.6732764155052244e+00 9.9325423505110635e+00 0 0 0
288 2 1.1224387688605006e+01 9.3445129309409030e+00 5.6572559518886756e-01 0 0 0
661 1 5.2337806378478637e+00 5.8267940341831137e+00 8.3626909547303594e+00 0 0 0
662 2 6.2372357728386083e+00 5.8800802330725830e+00 8.3896619809605344e+00 0 0 0
663 2 4.9510398611287272e+00 5.1340687561905982e+00 9.0076163411785650e+00 0 0 0
667 1 1.0892364528837062e+00 5.9341091527342025e+00 8.7374899534986188e+00 0 0 0
290 2 1.6752512712874882e+01 9.2418596468621459e+00 1.0916184692624795e+00 0 0 0
668 2 1.8354821606612937e+00 5.7197069354010166e+00 8.1859481867417578e+00 0 0 0
669 2 1.1598546676785833e+00 6.8721188380510414e+00 8.9004227426260574e+00 0 0 0
679 1 1.2391446891083107e+00 1.9908622944599230e+00 9.1964022746737442e+00 0 0 0
680 2 1.8621536837183135e+00 2.2970554136587316e+00 8.4915490281192056e+00 0 0 0
1085 2 4.6360026619584493e+00 1.5436915438576195e+01 9.9395786327647571e+00 0 0 0
682 1 5.4123433820252558e+00 2.5561404086579413e+00 7.1857292029000499e+00 0 0 0
683 2 6.1212438648190766e+00 2.4186286801957309e+00 7.8416795660342338e+00 0 0 0
684 2 5.7105187959083601e+00 1.9713419889879238e+00 6.3928975879688679e+00 0 0 0
685 1 9.4098116575269337e+00 2.9169000955523821e+00 6.9841089094595263e+00 0 0 0
686 2 1.0333815421035551e+01 2.6706458908520494e+00 7.1759573373150705e+00 0 0 0
687 2 8.8715267141530720e+00 2.4958405651506457e+00 7.6459340833485827e+00 0 0 0
1184 2 1.4327472357672601e+01 1.6086529496154480e+01 9.8171472443339329e+00 0 0 0
690 2 1.1076114110756413e+01 8.9591128132609299e-01 9.3872024885776817e+00 0 0 0
1133 2 1.1085027363955550e+01 1.6451516770371050e+01 1.0092392637787487e+01 0 0 0
697 1 1.1614782460057658e+01 5.9739855604057528e+00 8.3511890883593445e+00 0 0 0
698 2 1.1133945365855789e+01 5.3068317436993935e+00 8.9060994784146938e+00 0 0 0
699 2 1.1363758975308597e+01 6.8690054339759827e+00 8.6651759504868568e+00 0 0 0
344 2 1.9545439531633502e+01 1.2566526292425928e+01 1.6494732507415524e+00 0 0 0
703 1 8.1132549202085720e+00 5.8587083297649736e+00 8.7919175734325776e+00 0 0 0
704 2 8.6674919891487114e+00 5.9454304486225569e+00 7.9870378071082362e+00 0 0 0
705 2 8.0743154012677820e+00 6.7870151842400075e+00 9.0542466591976805e+00 0 0 0
715 1 7.5896025855748057e+00 2.1721764483498016e+00 8.7236218984688865e+00 0 0 0
716 2 7.7118257147943812e+00 2.7879198904678755e+00 9.4773811409038906e+00 0 0 0
717 2 7.7307550309418192e+00 1.2445267295470339e+00 9.0787117650565214e+00 0 0 0
718 1 1.2090005105155829e+01 2.7189083356825710e+00 7.6214139087541390e+00 0 0 0
719 2 1.2423533207212728e+01 1.9352745609334965e+00 7.0414746378076396e+00 0 0 0
720 2 1.2394411524586497e+01 3.5115316778900034e+00 7.0314302972193135e+00 0 0 0
721 1 1.6019706894001079e+01 2.6167888979477834e+00 7.1941891742387254e+00 0 0 0
722 2 1.5394987706886518e+01 2.4986411234774675e+00 8.0296972740474413e+00 0 0 0
723 2 1.5928934857414681e+01 3.5907371780043138e+00 6.9979268139058313e+00 0 0 0
1132 1 1.0929409545998604e+01 1.7390015426416653e+01 1.0118661953973321e+01 0 0 0
725 2 1.7553987735305654e+01 7.2943561969968596e-01 9.1331445366546777e+00 0 0 0
538 1 1.8873170289002719e+01 1.5955389054868926e+01 1.0475823130849444e+00 0 0 0
733 1 1.8230283756457450e+01 5.6730573115090728e+00 8.5305189093913274e+00 0 0 0
734 2 1.7557769009796790e+01 5.6712258090733991e+00 7.7854106513114614e+00 0 0 0
735 2 1.8129772097030926e+01 4.8344970075155178e+00 8.9795201793598682e+00 0 0 0
688 1 1.0935262327574504e+01 1.4968791488155173e+00 1.0125855313062040e+01 0 0 0
739 1 1.4208075813984113e+01 6.2417081834845494e+00 8.8439223650754144e+00 0 0 0
740 2 1.4153983226040156e+01 7.2103808947394388e+00 8.9830840600313593e+00 0 0 0
741 2 1.3281743070356617e+01 5.9443701659121526e+00 8.6509580254494747e+00 0 0 0
751 1 1.4199893747224252e+01 2.4207755991253608e+00 9.1143937857471364e+00 0 0 0
752 2 1.3412132120707264e+01 2.7875965480728069e+00 8.5919601431845720e+00 0 0 0
753 2 1.4510062705482198e+01 3.2087074815016559e+00 9.6755374106138099e+00 0 0 0
754 1 1.8814437702521886e+01 2.7058742464643597e+00 7.3066411444937893e+00 0 0 0
755 2 1.7847482986647627e+01 2.8519514447212315e+00 7.3533740175427704e+00 0 0 0
756 2 1.8874710629862086e+01 1.9971284819011987e+00 6.6433186363878436e+00 0 0 0
1755 2 1.8923464227550664e+00 1.8633046301533192e+01 5.0324162773805159e-01 0 0 0
865 1 3.1966610690706725e+00 9.2299151752430753e+00 7.1010266651330358e+00 0 0 0