LAMMPS data file via write_data, version 15 Apr 2020, timestep = 350000

1944 atoms
2 atom types

5.3547053848312487e-02 3.9928557946151933e+01 xlo xhi
1.5925905558923859e-01 1.9831793944410727e+01 ylo yhi
2.0982503090654880e-01 2.0590946969093068e+01 zlo zhi
4.0093828734854651e-03 -4.6133657694483274e-04 1.3415618724634585e-03 xy xz yz

Masses

1 16
2 2

Atoms # atomic

491 2 6.7415477596317723e+00 2.4986128174501747e+00 6.3621060521891648e+00 0 1 0
1160 2 1.2038401004212057e+01 1.8102696410972278e+01 7.4438854239699568e+00 0 0 0
90 2 1.2302757370789998e+01 1.0943189499540523e+01 5.4975727713148750e+00 0 0 0
905 2 1.5232615357646328e+01 4.8977487959001627e+00 4.5538761498950322e+00 0 0 0
1182 2 1.7137393403170947e+01 8.4338213109431415e-01 9.4000085924706127e+00 0 1 0
695 2 1.6598153755478268e+01 1.4470606237559847e+01 9.7045254073770852e+00 0 -1 0
449 2 1.2419078972759960e+01 4.7152890973736655e-01 4.5274520064408241e+00 0 1 0
945 2 1.5849208312695934e+01 1.6199935291481481e+01 4.7965208641897950e-01 0 0 1
725 2 1.7968567552390116e+01 2.4524200298928762e+00 7.8834839942959150e+00 0 0 0
1783 1 6.8979383990036487e+00 4.3661441131498382e+00 8.5248457720574589e+00 0 1 0
672 2 6.6160578318764758e+00 1.5821562001735032e+01 2.6559390944087333e+00 0 -1 0
535 1 1.7242773537227635e+01 1.6958994022029788e+01 5.3017890520464528e+00 0 0 0
1313 2 7.1520776524883467e-01 4.9462915475304845e+00 3.3801187491169591e+00 0 0 1
681 2 2.6129474889144666e-01 1.1250075377716264e+01 9.0764236114590844e+00 0 0 0
481 1 1.2879482602761252e+01 1.4929556240203352e+01 6.6628988731103167e+00 0 0 0
1540 1 2.0809195353709864e+00 2.8092570822388288e+00 6.0356529507382439e-01 0 0 1
1135 1 4.8230635853296864e+00 1.2180226687529977e+01 4.1604369522551252e+00 0 1 0
1375 1 9.6586142181812065e+00 1.6713098971005998e+01 5.8850353921650722e+00 0 0 1
1804 1 9.4409446137955921e+00 1.6910823548090612e+01 3.3229780205802402e+00 0 0 1
1754 2 4.7109595936682075e-01 1.3361764802365930e+00 9.9073049168060230e+00 0 1 0
1559 2 1.4397589635959452e+01 1.9004963926715526e+01 5.2809863557224279e+00 0 0 1
437 2 7.4488713517124276e+00 4.8392906397332487e+00 2.0633112880250768e+00 0 0 0
1527 2 7.9026246290882769e+00 1.4495592287243744e+01 6.7677549798275463e+00 0 0 1
467 2 1.2995383968020814e+01 5.7206400905022714e-01 7.2127091367353158e+00 0 1 0
463 1 1.1812633883334357e+01 4.8491324209925075e+00 5.9664125934383327e-01 0 0 -1
102 2 1.9277175627144938e+01 1.9338454189678242e+01 5.6217327114973052e+00 0 0 0
1323 2 4.1247163771127537e+00 1.6877430042988252e+01 6.5321070716907883e+00 0 0 0
1158 2 1.2092981020878083e+01 1.1620918415335117e+01 7.8184417593442337e+00 0 0 0
939 2 3.8858345787662616e+00 9.5328372394880230e+00 1.2780517529025865e+00 0 0 0
749 2 1.7078491401364865e+01 5.9741187247411753e+00 3.5378012239621723e+00 0 0 1
236 2 1.0008760060264487e+01 1.3391829263868372e+01 2.1647043961754138e+00 0 0 0
921 2 6.5577351168131470e-01 1.0793801392669498e+00 5.2908098744374419e+00 0 1 0
1786 1 3.4733314598786791e+00 1.8194859916322020e+01 5.5011493324325160e+00 0 0 1
678 2 1.2826059919143862e+00 9.1250127161904224e+00 1.8305575409625134e+00 0 0 0
1606 1 1.0627939207987517e+01 8.3996661752503190e+00 6.6232861841486503e+00 0 -1 0
1576 1 1.9028995693381837e+01 6.7723164409654073e+00 5.3474605037977723e+00 0 0 1
954 2 1.2082493253405614e+01 1.2930206687783043e+01 1.7936247334372275e+00 0 0 1
689 2 1.4444902588020252e+01 1.6656491838159759e+01 2.4212543071774775e+00 0 -1 0
1813 1 1.8271347184036991e+01 5.7803046452997968e+00 5.4410204906969728e-01 0 1 1
1785 2 6.7301892455346985e+00 5.3303536527686246e+00 8.5810804050037870e+00 0 0 0
1098 2 5.4578276471576421e+00 8.7828554394630221e+00 5.7485993946542679e+00 0 1 0
22 1 1.8628524721897144e+00 1.4173078008738850e+01 1.0328303104513337e+01 0 -1 -1
906 2 1.6589493681397769e+01 4.2173469191861788e+00 4.7469741338850797e+00 0 0 0
304 1 1.1512891901139358e+01 1.6783016020895239e+01 1.0150780406609572e+01 0 0 1
713 2 4.4001885759619865e+00 3.5348502957238370e+00 2.5504625581189404e+00 0 0 1
1306 1 7.6727814423708294e+00 1.6949661948494787e+00 3.9370367133199795e+00 0 0 1
486 2 9.0472588294894933e+00 7.3995827398409348e+00 4.0381867095997794e+00 0 0 0
1113 2 9.3818756886313732e+00 1.4061780851689091e+01 8.6570653450249786e+00 0 0 0
47 2 4.7184747786073258e+00 1.3476928255979965e+01 5.3384880949508631e+00 0 -1 0
716 2 1.7955950543846434e+01 2.0620559990350076e+00 1.3510795192484779e+00 0 0 1
1803 2 1.2672412409102789e+01 5.3091365391676497e+00 7.0549701839439880e+00 0 1 1
650 2 6.4281772676347932e+00 1.6959288637938734e+01 6.9947368207136309e+00 0 -1 0
898 1 3.4399698980152853e+00 6.9325806168651258e+00 2.6412976384970861e+00 0 0 0
726 2 1.8009075783815828e+01 3.1814824047875763e+00 9.2419097275123470e+00 0 0 0
1592 2 1.6346349673239768e+01 1.2065936422621904e+01 6.4983046587531723e-01 0 0 1
1583 2 1.2202679403315688e+01 1.3502627536923294e+01 9.2528082035709343e+00 0 0 0
507 2 7.6221512765686930e+00 3.3158663082269793e+00 9.6771332084071719e+00 0 0 1
1561 1 2.3496744930676865e+00 2.2377489766647183e+00 7.7759553986758938e+00 0 1 0
1089 2 9.7025498361101437e-01 8.8767839851594879e+00 1.0065104486330538e+01 0 1 0
1560 2 1.4004899357356752e+01 1.8322145536219058e+01 3.9941858939472277e+00 0 0 1
443 2 6.2091867077017113e+00 5.2224992764003275e+00 5.2782400235308753e+00 0 1 0
677 2 4.1073381592276098e-01 8.1189757540473373e+00 2.6231556601124555e+00 0 0 0
1128 2 1.0225082792993932e+01 3.3829691089723712e+00 6.9877854534048147e+00 0 1 1
896 2 8.8554419142498322e+00 6.0834981108515231e+00 7.4350315742589457e+00 0 0 0
712 1 3.8054679171636754e+00 3.9723437811855251e+00 1.8744269776471032e+00 0 0 1
1341 2 1.5187819258631317e+01 1.1520003843629867e+01 7.7720320095809807e+00 0 0 1
1543 1 2.1619292180126117e+00 1.2201852510888861e+01 6.5586067921254330e+00 0 0 0
227 2 7.1755395395021893e-01 1.2359609913218000e+01 3.2075801287663075e+00 0 0 0
302 2 1.5008786979324887e+01 1.2971787560242833e+00 8.6195273526762506e+00 0 0 -1
103 1 1.5714309622723269e+01 4.0382234662730303e+00 9.3081445475783708e-01 0 0 0
710 2 1.9428420302501365e+01 5.2211122759192854e+00 5.9775314013778376e+00 0 0 0
913 1 1.7515157327445678e+01 1.8912486243969635e+01 3.3532732085596884e+00 0 0 0
235 1 1.0831349213673692e+01 1.3335902720997979e+01 2.7715840294665068e+00 0 0 0
273 2 1.2287045855290637e+01 8.1007569220641784e+00 1.4621621738307256e+00 0 0 1
1376 2 8.8492199557221429e+00 1.6678074789229210e+01 6.5193366648010800e+00 0 0 1
1084 1 3.9158871700920814e+00 9.6964126257490051e+00 5.7647484413881163e+00 0 0 0
483 2 1.3606276945717854e+01 1.4822354146731875e+01 6.0227300263734715e+00 0 0 0
49 1 8.6355149552889525e+00 1.9235507794067068e+01 2.2479295445493332e+00 0 -1 0
1397 2 1.9424057414754362e+01 9.5189832154939094e+00 7.9183839761963482e+00 0 0 1
1121 2 1.2393516447977653e+01 1.5963566832206924e+01 2.6871989706749844e+00 0 0 0
750 2 1.7488314498145289e+01 6.6199893028050765e+00 2.2049447805785851e+00 0 0 1
1137 2 5.7096616021270696e+00 1.1956476626022109e+01 4.4685794586292111e+00 0 1 0
88 1 1.2551193823543880e+01 1.0777788559675834e+01 4.5400891439345319e+00 0 0 0
736 1 1.7427313985568791e+01 1.1535193780394506e+01 3.3450398298770763e+00 0 0 0
1326 2 1.4708641792119087e+01 1.8970986603266038e+01 1.0072125199221531e+01 0 0 0
301 1 1.5450598715117493e+01 1.8774603596477650e+00 9.2973463424959828e+00 0 0 -1
1208 2 1.9719475996384627e+01 1.9568927092184438e+01 8.7892421387925950e+00 0 0 0
1324 1 1.4748119406321880e+01 1.8672423839991833e+01 9.1494728192300290e+00 0 -1 0
1162 1 1.1815707765036596e+01 2.6536425173254989e+00 2.3847695921648850e+00 0 1 1
1366 1 1.8710588704364913e+01 1.6827481900804358e+01 1.7829614455511591e+00 0 0 1
1181 2 1.8415809495954072e+01 1.0414693765396368e+00 1.0331248390900241e+01 0 1 0
67 1 2.0229208106695440e+00 1.9702681878011330e+01 1.0053782537886841e+01 0 -1 0
1322 2 4.5402268278845730e+00 1.6067840842932306e+01 7.8306235664073167e+00 0 0 1
492 2 8.0537617578713618e+00 3.1366732299217932e+00 5.8558985243774870e+00 0 1 0
1140 2 1.0632392335784052e+01 1.9714982890102026e+00 1.5466469343799532e+00 0 0 1
537 2 1.8082113331904676e+01 1.7068244206045730e+01 5.7620242637265324e+00 0 0 0
1816 1 1.3441501455162115e+01 1.3381614668699575e+00 7.5913507873539454e-01 0 2 1
714 2 4.3695675660118392e+00 4.4032353449007537e+00 1.1852844779969933e+00 0 1 1
661 1 2.8065998190169911e-01 1.9875169661754852e+00 2.6481955467921887e+00 0 0 1
1086 2 3.8449386347702852e+00 9.9662534572827060e+00 6.6720869913211187e+00 0 0 0
1300 1 5.5776365574387690e+00 1.1700292188797716e+01 7.9952424048666986e+00 0 0 0
665 2 2.5976777796724408e+00 5.1755409929373020e+00 6.4903288738906149e+00 0 0 0
941 2 1.4631176226197926e+01 8.2284033267761336e-01 4.0920999330489742e+00 0 1 1
1810 1 1.8532445460924112e+01 1.0102490076215849e+01 1.3295992263462515e+00 0 0 1
1093 1 1.6641025212814210e+01 9.1751330962284943e+00 3.9646212352212360e+00 0 2 0
739 1 8.3816519688714504e+00 1.3467553063019173e+01 1.3515055942994063e+00 0 0 1
683 2 3.6118700207117125e+00 1.6145502943446175e+01 3.2215291741591350e+00 0 -1 0
1812 2 1.9235307815413368e+01 9.6705361961392295e+00 1.7565664183031899e+00 0 0 1
251 2 7.6567262591998944e+00 1.1417024416986340e+01 5.7076985264209084e+00 0 -1 0
1792 1 9.5467019974803389e+00 1.9366672403474748e+01 5.1181300477265701e+00 0 -1 1
1818 2 1.4285623609911548e+01 8.4565291376010254e-01 1.0559173374727626e+00 0 2 1
1367 2 1.8589512173760202e+01 1.7709873436893574e+01 2.1471454545031605e+00 0 0 1
964 1 1.0116241489022705e+01 1.1921959016236090e+00 8.8681442683762146e+00 0 1 0
1395 2 1.4573844427602623e+01 1.9656810311672619e+00 5.8928550453024782e+00 0 0 0
1806 2 9.4829870948950745e+00 1.6825588897416580e+01 4.3538735781024798e+00 0 0 1
1771 1 1.3947650527685106e+01 8.5789361495570624e+00 4.2539677047652171e+00 0 0 0
740 2 7.7899018773200197e+00 1.2692549142044829e+01 1.4497428496745606e+00 0 0 1
1325 2 1.4750457230557940e+01 1.7699886385976018e+01 9.3023136300028213e+00 0 -1 0
276 2 1.0233055821677908e+01 7.7204125698871113e+00 2.3548685361408217e+00 0 0 0
1340 2 1.4187823282443006e+01 1.1935493153845220e+01 8.8723521623634447e+00 0 0 1
742 1 1.5750575848459563e+01 1.2085656644779236e+01 6.4165914049080328e+00 0 -1 0
711 2 1.9556809758376602e+01 3.9907769578467169e+00 7.0133663526268029e+00 0 0 0
1302 2 5.9667358729512578e+00 1.2243689314806572e+01 8.7755119365357395e+00 0 0 0
1562 2 2.9762523128122726e+00 2.9666438180816312e+00 8.0821445648777548e+00 0 1 0
219 2 1.0475538006252481e+01 8.6906253588353692e+00 9.7869701447380439e+00 0 0 0
1525 1 7.9623483295620545e+00 1.4423992061977444e+01 5.7860774949005762e+00 0 0 1
64 1 1.6996571594006287e+01 8.0916066875942754e+00 6.4283348257633222e+00 0 0 -1
900 2 3.0082147604751550e+00 6.8237592627430796e+00 1.7484589258923917e+00 0 0 0
485 2 8.6429849828390708e+00 6.1187737428797808e+00 3.2192836431399363e+00 0 0 0
454 1 3.8759241101993451e+00 1.9625509405690838e+01 7.8214396214800095e+00 0 0 0
971 2 1.4335111687752699e+01 1.1986650772790531e+01 4.2800339367688593e+00 0 0 0
1618 1 1.5631503806430890e+01 1.8776110409097381e+01 6.4604153022100670e+00 0 -1 0
701 2 9.6881436496798869e+00 1.0572494258985568e+01 3.8073234854789204e+00 0 0 -1
1339 1 1.4847261007898451e+01 1.1244886949854143e+01 8.6632718176373089e+00 0 0 1
28 1 4.1264461048462691e+00 1.5204188957726354e+01 9.3919698825050126e+00 0 -1 0
229 1 1.9185164179767795e+00 1.4814542049663730e+01 5.6729976573170342e+00 0 0 0
1155 2 1.7424628252507905e+01 1.3352622375648428e+01 8.3911207336238167e+00 0 1 0
1749 2 2.9432825438986243e-01 1.0810057855272468e+01 4.5189341881471243e+00 0 0 1
233 2 1.4234781463365884e+01 8.3808232047600288e+00 8.9461037255033045e+00 0 0 -1
685 1 5.8450574157840203e+00 1.8779186263896481e+01 4.7342958685321008e+00 0 0 0
270 2 1.9689264546336045e+01 1.4980152500933974e+01 6.6621775811288373e+00 0 0 0
662 2 4.1609035166452557e-01 1.0206695142954678e+00 2.7719223712084293e+00 0 0 1
935 2 1.3469743614695085e+01 9.5234393442129726e+00 5.0764141693371956e-01 0 1 1
1096 1 6.2037893639587658e+00 8.1772536381600940e+00 5.5027074178530633e+00 0 1 0
1753 1 3.1220334697980495e-01 2.1863536876378498e+00 9.4439597944491567e+00 0 1 0
944 2 1.5634730746952719e+01 1.7724262862357488e+01 1.0258397364800074e+00 0 0 1
743 2 1.5306318675971433e+01 1.2880453451928469e+01 6.2039727194011354e+00 0 -1 0
684 2 3.9285579243307236e+00 1.4611367775633957e+01 2.9078575056465907e+00 0 -1 0
31 1 1.9040243625258226e+00 1.6332063575043264e+01 5.0473384484914141e-01 0 -1 0
1120 1 1.1525402677194199e+01 1.5752597242252010e+01 2.2702393913656209e+00 0 0 0
748 1 1.7406098252853372e+01 6.7859424078688333e+00 3.1293304793689720e+00 0 0 1
226 1 4.3118647076343103e-01 1.3023012265446832e+01 2.5514361016749265e+00 0 0 0
1357 1 1.0703514989177238e+01 1.4179199460202918e+01 1.0027165722984019e+01 0 0 0
225 2 3.6885236140616424e+00 1.3627312445917004e+00 3.0812465001535672e+00 0 1 0
1794 2 9.6560387487905146e+00 1.8483443131175981e+01 5.5859353099102007e+00 0 -1 1
484 1 9.4491070393193688e+00 6.6426382576366079e+00 3.5235981285748679e+00 0 0 0
1372 1 7.9692052257079835e+00 3.5003571808577645e+00 8.8390623677750102e-01 0 0 1
258 2 7.3067911018072067e+00 1.1286717881226094e+01 3.1375992889754021e+00 0 0 1
442 1 5.5991199526337008e+00 5.7006155334593585e+00 4.6546341810648322e+00 0 1 0
1581 2 1.2724962266052873e+00 1.9341584699327331e+01 8.5031838497239800e+00 0 -1 0
468 2 1.3181139415390740e+01 1.9399561056847539e+01 8.4583057637341419e+00 0 0 1
250 1 7.4571877302870462e+00 1.1828592496705161e+01 4.8628916500243697e+00 0 -1 0
479 2 1.6209267143383411e+01 1.9488743704281227e+01 2.3452885116326079e+00 0 0 -1
703 1 4.6130922896869082e+00 1.7790510048351528e+01 1.0199201430120691e+01 0 0 -1
30 2 4.0695017498065402e+00 1.6143527628323429e+01 9.6495476148427990e+00 0 -1 0
11 2 1.0089733383847799e+00 1.9333802010754752e+01 1.0289306621693779e+00 0 -1 0
895 1 9.6752037697186051e+00 6.1611247100635467e+00 7.9607748848795161e+00 0 0 0
263 2 1.1002754570059681e+01 1.6265141074564337e+01 5.3741315987080351e-01 0 0 0
1159 1 1.1674607563475950e+01 1.7205178729914355e+01 7.5375089483244286e+00 0 0 0
1526 2 7.5525165867091886e+00 1.5184632310997541e+01 5.3670298056237948e+00 0 0 1
686 2 5.8551545318084823e+00 1.9257061010623609e+01 3.8642823175655359e+00 0 0 0
940 1 1.4962342791159207e+01 1.7634662267180901e+00 3.9615877660752621e+00 0 1 1
74 2 1.7575458653057062e+01 6.7335917918747663e+00 8.6443003457459096e+00 0 0 0
744 2 1.6634138579661787e+01 1.2386052553739137e+01 6.7613858109168516e+00 0 -1 0
1139 2 9.5608606178278830e+00 7.8534771603063991e-01 1.4751820928321870e+00 0 0 1
669 2 3.3213237596910272e-01 1.7739289872588429e+01 4.7374148980962500e+00 0 0 0
1620 2 1.6192210182183427e+01 1.9568150406186458e+01 6.4099883183862207e+00 0 -1 0
73 1 1.8011326312430537e+01 5.8892789846211429e+00 8.5451835183738254e+00 0 0 0
457 1 1.7229873249298755e+01 8.0544121343509261e+00 1.0394078042636206e+01 0 1 0
920 2 1.8549521497268344e+00 1.8414232779191506e+00 6.0775418749715113e+00 0 1 0
694 1 1.5962224793225822e+01 1.3732685391702253e+01 9.6151286479554621e+00 0 -1 0
455 2 3.3006129466990268e+00 7.4345654626170965e-01 8.0516790919116072e+00 0 1 0
94 1 8.0287074999116683e+00 1.0933275820819087e+01 7.3820700949613709e+00 0 0 0
919 1 1.6383216896806512e+00 1.1158509829856895e+00 5.4630525123264295e+00 0 1 0
526 1 1.7714127748210235e+01 1.4712391519406481e+01 3.2966370065331021e+00 0 0 0
933 2 1.5343737120025486e+01 1.4202223276256694e+01 4.4272458653737994e+00 0 0 0
232 1 1.3668918722503872e+01 9.0968844044189314e+00 9.3444894321308691e+00 0 0 -1
320 2 6.3018463385393959e+00 1.7066849050092568e+01 4.4756632708245743e+00 0 -1 1
230 2 2.5017547329670018e+00 1.5048529447436851e+01 4.9111828974300451e+00 0 0 0
1374 2 8.6635297908331239e+00 2.8665161928997991e+00 1.2305811018733617e+00 0 0 1
1776 2 3.1748811628487186e+00 1.8608573207640639e+01 2.6061192211462414e+00 0 0 1
1314 2 8.4505188868783554e-01 3.3932116186322934e+00 3.7769540882241470e+00 0 0 1
1085 2 3.2581974776035967e+00 8.9844509007882998e+00 5.7551667629216583e+00 0 0 0
715 1 1.7624511839097075e+01 2.5297725630171470e+00 2.0894568831583404e+00 0 0 1
478 1 1.5839671038740919e+01 1.9610436548065753e+01 1.4287247330817263e+00 0 0 -1
666 2 1.9898770223677082e+00 6.6422593784379398e+00 6.2416215852795016e+00 0 0 0
1742 2 4.3563745051174187e+00 2.0375487075073133e+00 1.0225329015790479e+01 0 0 0
889 1 2.1921160042931400e+00 1.2590820335308987e+01 7.6821642115046307e-01 0 0 0
893 2 4.0660198880560880e+00 4.7975104165441467e+00 5.0208389784076584e+00 0 0 0
884 2 9.3964729244673819e+00 6.4010335285161011e+00 9.6984656797539976e+00 0 0 0
19 1 1.8417125580756784e+00 7.7649101168626009e+00 5.1237841142750229e+00 0 0 0
1823 2 1.8745482763230797e+01 1.2874889261499627e+01 1.0312220589102927e+00 0 0 1
7 1 4.1869444165232428e-01 1.2855582148777598e+01 8.3101860699772541e+00 0 -1 0
480 2 1.6617250312832908e+01 1.8086996109093301e-01 8.5186827759335904e-01 0 1 -1
1608 2 1.0187208282985853e+01 7.9485962097155713e+00 7.3558783229619316e+00 0 -1 0
970 1 1.4735013692071634e+01 1.2549040946876776e+01 3.6098531691723075e+00 0 0 0
675 2 5.8050811652430960e+00 7.2132652026197190e+00 8.3666026544539474e+00 0 -1 0
489 2 1.5561303776573395e+01 7.1719401408855274e+00 7.1601721761754789e+00 0 1 -1
1541 2 2.7715258960275539e+00 3.2450358664215537e+00 1.1947668377099390e+00 0 0 1
721 1 1.0905153308440214e+01 1.1110522863315788e+01 2.4443242512305682e-01 0 0 0
234 2 1.4197815917390191e+01 9.8668549604235913e+00 9.0233626249352206e+00 0 0 -1
461 2 4.1334892991352170e+00 3.9413811138558659e+00 1.0102632477512952e+01 0 1 0
876 2 9.3266510027108094e+00 8.7822811643630327e+00 5.3828575419809539e+00 0 0 0
436 1 7.2419885866865750e+00 5.7254945437972689e+00 2.5320181661214600e+00 0 0 0
76 1 1.7711818943197390e+01 2.8320378255544463e+00 4.5781991893377825e+00 0 0 0
1126 1 1.0458654186187493e+01 3.6046885215356537e+00 7.9154227712092924e+00 0 1 1
673 1 6.7211900483627023e+00 7.0769506919999188e+00 8.1184448798601796e+00 0 -1 0
702 2 1.0406104433944570e+01 1.1739286677621978e+01 2.7577807542359216e+00 0 0 -1
458 2 1.7098193609948336e+01 9.0941347154015393e+00 1.0287704694540079e+01 0 1 0
536 2 1.6660059602577672e+01 1.7507889246436765e+01 5.8942864915132596e+00 0 0 0
914 2 1.7257446589976549e+01 1.8244591673735115e+01 4.0115660102037722e+00 0 0 0
223 1 3.0240706435242122e+00 7.0618405501914117e-01 2.9476628730107510e+00 0 1 0
903 2 1.4203567742920402e+01 3.3369882467178096e+00 3.5201754954743247e+00 0 1 0
717 2 1.7070132082007738e+01 3.1822045922863342e+00 1.7646174549749325e+00 0 0 1
257 2 6.0949722975407434e+00 1.0895036501795760e+01 2.1717663798667273e+00 0 0 1
738 2 1.6653614076729479e+01 1.2119292201536386e+01 3.2686805711259290e+00 0 0 0
682 1 3.8361824205896546e+00 1.5291201437391141e+01 3.6198631545431255e+00 0 -1 0
1370 2 1.0853093938649071e+01 5.5799670714103717e+00 3.9728715789171543e+00 0 0 1
891 2 3.0956962511760855e+00 1.2918839555003144e+01 1.0821359087575368e+00 0 0 0
51 2 9.0643524318949300e+00 1.8521692923031118e+01 2.7924510987069540e+00 0 -1 0
482 2 1.2092200347513192e+01 1.4592333215518362e+01 6.2072190106159866e+00 0 0 0
687 2 4.8955775253315679e+00 1.8583846327010384e+01 4.8950246249199294e+00 0 0 0
737 2 1.7138033741704582e+01 1.0655400924129411e+01 3.7511726615441687e+00 0 0 0
1398 2 1.8285811112300788e+01 1.0365614934364777e+01 8.3342646110986802e+00 0 -1 1
901 1 1.3997696045104647e+01 4.2554757206089606e+00 3.1702472528547072e+00 0 1 0
910 1 8.7579631580036210e+00 8.9466856866696141e+00 9.2814567191663908e+00 0 0 0
1127 2 1.0167513521033586e+01 2.7900894995476127e+00 8.4019210225538146e+00 0 1 1
1369 1 1.1493904704034650e+01 5.0706433859679532e+00 4.4328897153701083e+00 0 0 1
1747 1 1.2158747438449011e+00 1.0900618030651748e+01 4.3100686943408375e+00 0 0 1
1793 2 9.1774990017009817e+00 1.9078636046744182e-01 5.8605671849152632e+00 0 0 1
871 1 4.4314496170001085e+00 1.3343479368045944e+01 1.7148578932556391e+00 0 0 0
272 2 1.3714294223064286e+01 7.6075354890850315e+00 1.1215774932973828e+00 0 0 1
671 2 7.3632849789688226e+00 1.4879339456992989e+01 1.6568086763206913e+00 0 -1 0
306 2 1.1264927908326616e+01 1.7067619547402604e+01 9.2442586776032893e+00 0 0 1
1761 2 8.4724174843521745e+00 8.8945352016151116e+00 5.7112297037430637e-01 1 0 1
1122 2 1.0838429011652947e+01 1.6283495881209681e+01 2.7332766235691315e+00 0 0 0
1755 2 5.9218107528412312e-01 2.7984181419810175e+00 1.0174252090056793e+01 0 1 -1
237 2 1.1105689265707468e+01 1.4264849789939761e+01 2.8169571847746617e+00 0 0 0
1544 2 1.6799771774717918e+00 1.1607174793597160e+01 5.8939251943218949e+00 0 0 0
931 1 1.5213764374976202e+01 1.4870826728787005e+01 5.1533948315111164e+00 0 0 0
293 2 1.8567770863937060e+01 1.1763841924876576e+01 4.6490132967184845e+00 0 -1 -1
469 1 1.4183873208752942e+01 1.6083741729606196e+01 9.7088827652403840e+00 0 0 -1
462 2 5.2953169212751332e+00 3.8039777342658154e+00 9.0440735173026585e+00 0 1 0
1784 2 7.0675625466773004e+00 4.1322715013060787e+00 7.6174619806945509e+00 0 1 0
1125 2 1.7466429165780458e+01 1.5616443659302603e+00 5.9356978816269717e+00 0 1 0
488 2 1.4111246587514064e+01 7.0879117651673571e+00 6.9696141959153639e+00 0 1 -1
1824 2 1.7867846030577983e+01 1.3684834826157056e+01 1.9387059879605217e+00 0 0 1
1161 2 1.2401465745885659e+01 1.6533817467787255e+01 7.2963488422504765e+00 0 0 0
77 2 1.8015000604678956e+01 2.7160080910299000e+00 3.6794997623415413e+00 0 0 0
690 2 1.4177520151918429e+01 1.6197635250864383e+01 3.9807088594699591e+00 0 -1 0
959 2 1.5938239913363601e+01 4.6471345504081469e+00 6.9554774949078553e+00 0 1 0
59 2 1.2557964196986293e+00 5.9060848857604356e+00 8.1624152098586986e+00 0 0 -1
700 1 1.0392363243896622e+01 1.0762116206173854e+01 3.1455809662053378e+00 0 0 -1
466 1 1.2478268580673465e+01 1.9812612695560038e+01 7.9090307961731980e+00 0 0 0
1554 2 1.0633463952366013e+01 2.3912179528448902e+00 5.2388715847916947e+00 0 0 1
231 2 2.2512275903260339e+00 1.3972878078731425e+01 6.0139855159483036e+00 0 0 0
282 2 4.6323889013818169e+00 2.9234649565912405e+00 4.6196417652081676e+00 0 0 0
1153 1 1.8057824617061151e+01 1.3044183576328278e+01 7.7401890501828756e+00 0 1 0
12 2 1.1641437025521051e+00 1.8728087337359884e+01 2.5315303418255550e+00 0 -1 0
688 1 1.3780467072968253e+01 1.6596899542681406e+01 3.1384371391185120e+00 0 -1 0
1359 2 1.0870838080245184e+01 1.5162790793686529e+01 1.0219654445510137e+01 0 0 0
269 2 1.9390001837472585e+01 1.3717268258921697e+01 5.9070864546432187e+00 0 0 0
1558 1 1.3776084052724018e+01 1.9056464263350332e+01 4.5561453372532368e+00 0 0 1
100 1 1.9050761876654384e+01 5.5411919903321405e-01 5.1984078780017970e+00 0 0 0
932 2 1.5977672909634952e+01 1.5527426258632408e+01 5.1334220495354215e+00 0 0 0
1535 2 1.2127991336817663e+01 7.4920204450967889e+00 6.3705874420810114e+00 0 -1 0
255 2 2.3033735225475822e+00 1.0817806746120574e+01 5.2521280287742900e-01 0 0 1
1611 2 5.4462143318976688e+00 1.4356868332574019e+01 9.7735225097797969e+00 0 0 0
1578 2 1.8486280425600732e+01 7.3019385600308491e+00 5.9551112702160287e+00 0 0 1
452 2 2.0626695811157232e+00 9.9315241136373160e+00 8.6533382540588430e+00 0 0 -1
1321 1 4.8512129721945545e+00 1.6268088032487537e+01 6.9169546746561954e+00 0 0 1
1111 1 8.6196683537660537e+00 1.3625803012259903e+01 8.2741601913285852e+00 0 0 0
1537 1 5.9113184068193947e-01 1.5652387565735843e+01 2.3668171374430229e+00 0 0 1
68 2 2.8423564060866955e+00 4.9438796022103726e-01 1.0355429161129752e+01 0 0 0
101 2 1.9928019694680859e+01 9.4932837936059011e-01 4.9876475397800819e+00 0 0 0
1825 1 1.8405736310369921e+01 7.0225176065732575e-01 3.6942418857802367e-01 0 1 1
96 2 8.3374828166235009e+00 1.1823914169142764e+01 7.6390306552858886e+00 0 0 0
1536 2 1.3331813132073769e+01 7.3873545712150586e+00 5.2939494829581104e+00 0 -1 0
292 1 1.9341801084307843e+01 1.2010456883026114e+01 5.3193800568007266e+00 0 -1 -1
958 1 1.5769010096723775e+01 4.5281929735052104e+00 7.8741512037938959e+00 0 1 0
490 1 7.1573679653488735e+00 3.3807569541253844e+00 6.1529260813912519e+00 0 1 0
1764 2 6.4472182148521506e-01 6.1176251553051966e+00 1.3491783694515846e+00 0 1 0
1542 2 1.3158903283914025e+00 2.5776092755565618e+00 1.1018772915764079e+00 0 0 1
875 2 7.8320576392635362e+00 8.9348413693666711e+00 5.1487818571765418e+00 0 0 0
654 2 3.5661723379908081e+00 6.8617715710124081e+00 7.8655476700560323e+00 0 0 0
1301 2 5.3521964106357451e+00 1.2395603201253881e+01 7.3106709289969718e+00 0 0 0
1805 2 8.7760019151942554e+00 1.6304692127836532e+01 3.0086179875380306e+00 0 0 1
894 2 2.5528465523277513e+00 4.3276056389457978e+00 4.7396269576125114e+00 0 0 0
1309 1 1.8031025363412297e+01 1.5634914084743993e+01 9.8370737605657048e+00 0 0 0
1377 2 1.0475418472128002e+01 1.6791581546453937e+01 6.4475226742385692e+00 0 0 1
872 2 4.6673809699548645e+00 1.2820564407761706e+01 2.5150054431826172e+00 0 0 0
723 2 1.0147769231104325e+01 1.0547532210924944e+01 3.6295938947027290e-01 0 0 0
2 2 1.2181755430312167e+00 1.6644832380123361e+01 9.8318756940560927e+00 0 -1 0
1801 1 1.2754159239223862e+01 4.7918579554220360e+00 7.8375426317521244e+00 0 1 1
873 2 4.8824081279018063e+00 1.2963483130523480e+01 9.9111640196638473e-01 0 0 0
252 2 7.6562075663290381e+00 1.2749330673549990e+01 5.1149101378592157e+00 0 -1 0
965 2 1.0883796885561120e+01 7.5119029526905401e-01 8.5239179650028092e+00 0 1 0
281 2 5.8712560604199133e+00 2.3054738722351393e+00 3.7696610327221634e+00 0 0 0
78 2 1.8524197160758110e+01 3.0578825859561332e+00 5.0480182104368820e+00 0 0 0
1777 1 8.2384515720956770e+00 1.9640130921131455e+01 7.4146856799493763e+00 0 0 0
66 2 1.6937697493038758e+01 8.4738629874617661e+00 5.5128501621267993e+00 0 0 -1
952 1 1.2931840793818727e+01 1.2509993477501187e+01 1.4170265908000947e+00 0 0 1
1833 2 7.3693820733599278e+00 1.6959313946432442e+01 8.8785754640615124e+00 0 -1 0
314 2 1.0896480255599634e+01 1.3375173821906174e+01 4.7909417529650655e+00 0 0 0
10 1 5.0221262480692141e-01 1.9039029707161735e+01 1.8279769664527681e+00 0 -1 0
904 1 1.6085378464449555e+01 4.9992301328028521e+00 4.9981216116702747e+00 0 0 0
1607 2 1.0774686464456025e+01 9.3021200191802738e+00 6.9541989422542532e+00 0 -1 0
667 1 1.1500496777896168e+00 1.7755330407751028e+01 4.1521045811404012e+00 0 0 0
1545 2 2.9098883904393227e+00 1.1686694947990297e+01 6.9721069662421220e+00 1 0 0
1556 2 7.6066532280888666e+00 6.8501038265866416e+00 9.8990020931894784e-01 0 0 1
911 2 8.3859992367497345e+00 9.2821326924045611e+00 1.0185663196040780e+01 0 0 0
48 2 4.8440854118823395e+00 1.4649321849528290e+01 6.4017822884277997e+00 0 -1 0
1355 2 2.6918096109410197e+00 5.8884208331627386e-01 6.6677210218232474e-01 0 0 2
1136 2 4.1833863690614477e+00 1.1528207967482706e+01 4.3985287798268491e+00 0 1 0
1775 2 2.9814195750102441e+00 1.7496136185881699e+01 1.4883257550394862e+00 0 0 1
942 2 1.5907072550869009e+01 1.7121039500129540e+00 3.8892327993064613e+00 0 1 1
1584 2 1.3054104968549783e+01 1.3746746966759270e+01 7.8684427264337486e+00 0 0 0
46 1 4.8181989362143911e+00 1.3671221410825980e+01 6.2741140038217598e+00 0 -1 0
89 2 1.1766800599998655e+01 1.0821619391588021e+01 3.9834634016507944e+00 0 0 0
1123 1 1.7011191797710026e+01 1.3800575853964259e+00 6.8250403030044744e+00 0 1 0
450 2 1.0896021836108778e+01 4.7647464984229071e-01 4.8037680451908082e+00 0 1 0
106 1 1.7078734942065008e+01 1.0546583068276663e+01 9.8871552699105330e+00 0 0 0
1774 1 3.4623955001882956e+00 1.7690405763714999e+01 2.3585613359192430e+00 0 0 1
1534 1 1.2783114497752740e+01 6.8450128594223303e+00 5.9902015483078754e+00 0 -1 0
676 1 4.7076210477572833e-01 9.0461799235713212e+00 2.3597041535174337e+00 0 0 0
444 2 5.5801784058527728e+00 6.6301827086778955e+00 4.9982085109305094e+00 0 1 0
275 2 1.0550151788064944e+01 9.2119812791098212e+00 1.9774899910228869e+00 0 0 0
1822 1 1.7904653735342759e+01 1.3361742489848837e+01 9.8409435265064171e-01 0 0 1
897 2 1.0053451493162370e+01 5.2403080875626591e+00 8.0116655881985164e+00 1 0 0
1539 2 5.5393517376790802e-01 1.4674532804883683e+01 2.3682237643086212e+00 0 0 0
464 2 1.1862855223848243e+01 4.2774167580040068e+00 1.4144591811994527e+00 0 0 -1
972 2 1.4024695412119199e+01 1.2532576062151415e+01 2.8855046204331276e+00 0 0 0
670 1 6.7124596700137849e+00 1.5677741416414984e+01 1.6871140545905310e+00 0 -1 0
938 2 4.8377000026678907e+00 8.6426407079321308e+00 2.1245623252542263e+00 0 0 0
50 2 7.7215281963465099e+00 1.9003791158578345e+01 2.0810662967036295e+00 0 -1 0
912 2 8.6274080744182715e+00 9.6881647483477984e+00 8.6361476247623976e+00 0 0 0
21 2 8.4755088912325316e-01 7.4791236693983851e+00 5.0249784453901043e+00 0 0 0
453 2 3.3382520830971014e+00 1.0744752844631485e+01 8.9514352458080300e+00 0 -1 -1
1157 2 1.1056972889182859e+01 1.1968933444657095e+01 6.6019680637099825e+00 0 0 0
60 2 7.4348925142313804e-01 5.3185186162651590e+00 9.5650782784924679e+00 0 0 -1
65 2 1.7384866816392179e+01 8.7803546355113831e+00 6.8969512335224588e+00 0 0 -1
456 2 3.9045583496837408e+00 1.9075760391669128e+01 8.6458976456006109e+00 0 0 0
527 2 1.8316437030180541e+01 1.4736374996947964e+01 4.0754128959221161e+00 0 0 0
1163 2 1.2591006325897705e+01 2.2820014987840924e+00 1.9013683845256324e+00 0 1 1
294 2 1.9098882458059109e+01 1.1543222248874795e+01 6.1417409671204073e+00 0 -1 -1
1773 2 1.3780962215199413e+01 8.4098649719005056e+00 3.2896861952020613e+00 0 0 0
696 2 1.5155772005004112e+01 1.4244350681564505e+01 9.4955254822668778e+00 0 -1 0
1563 2 1.5799300941881842e+00 2.3138020195007867e+00 8.3965390009161265e+00 0 1 0
315 2 9.7900105491183744e+00 1.3722827980295101e+01 5.8723313444826282e+00 0 0 0
1568 2 5.5746311196016123e+00 4.3068472613308600e-01 1.4107232508019070e+00 0 0 1
319 1 6.4572595388247311e+00 1.6118546373713031e+01 4.2514617084916644e+00 0 -1 1
704 2 5.5367853634131947e+00 1.7554399895416999e+01 9.9672913975846669e+00 0 0 -1
1619 2 1.5344049314927378e+01 1.8722344255942581e+01 7.3832730059128204e+00 0 -1 0