LAMMPS data file via write_data, version 15 Apr 2020, timestep = 0

1944 atoms
2 atom types

0.0000000000000000e+00 3.9982105000000004e+01 xlo xhi
0.0000000000000000e+00 1.9991053000000001e+01 ylo yhi
0.0000000000000000e+00 2.0800772000000002e+01 zlo zhi
0.0000000000000000e+00 0.0000000000000000e+00 0.0000000000000000e+00 xy xz yz

Masses

1 16
2 2

Atoms # atomic

1 1 2.6399999999999997e+00 2.6000000000000001e+00 1.6000000000000000e-01 0 0 0
4 1 4.0499999999999998e+00 1.3000000000000000e+00 3.3100000000000001e+00 0 0 0
5 2 4.1500000000000004e+00 2.2300000000000000e+00 3.1000000000000001e+00 0 0 0
6 2 4.3300000000000001e+00 8.4000000000000008e-01 2.5200000000000005e+00 0 0 0
7 1 5.9100000000000001e+00 4.7199999999999998e+00 5.5400000000000000e+00 0 0 0
8 2 6.6200000000000001e+00 4.4500000000000002e+00 4.9600000000000000e+00 0 0 0
9 2 5.7500000000000000e+00 3.9600000000000000e+00 6.0900000000000007e+00 0 0 0
10 1 1.3400000000000001e+00 4.0700000000000003e+00 3.8400000000000007e+00 0 0 0
11 2 1.1599999999999999e+00 4.7999999999999998e+00 3.2400000000000002e+00 0 0 0
12 2 1.1699999999999999e+00 3.2900000000000000e+00 3.3300000000000001e+00 0 0 0
13 1 4.6200000000000001e+00 5.9800000000000004e+00 1.4600000000000000e+00 0 0 0
14 2 5.5700000000000003e+00 6.0199999999999996e+00 1.5100000000000005e+00 0 0 0
15 2 4.3700000000000001e+00 5.3399999999999999e+00 2.1299999999999999e+00 0 0 0
16 1 4.0700000000000003e+00 4.0400000000000000e+00 3.4600000000000000e+00 0 0 0
17 2 3.1499999999999999e+00 4.0899999999999999e+00 3.7200000000000011e+00 0 0 0
18 2 4.5599999999999996e+00 4.2699999999999996e+00 4.2500000000000000e+00 0 0 0
19 1 7.3999999999999988e-01 5.9800000000000004e+00 1.8200000000000001e+00 0 0 0
21 2 1.2400000000000000e+00 5.7400000000000002e+00 1.0400000000000000e+00 0 0 0
22 1 2.0400000000000000e+00 7.0999999999999996e-01 5.0700000000000012e+00 0 0 0
23 2 1.1100000000000001e+00 8.1000000000000005e-01 4.8600000000000003e+00 0 0 0
24 2 2.4999999999999996e+00 9.8999999999999999e-01 4.2800000000000002e+00 0 0 0
25 1 2.5699999999999998e+00 5.3899999999999997e+00 6.7400000000000002e+00 0 0 0
26 2 3.2900000000000005e+00 5.6499999999999995e+00 7.3099999999999996e+00 0 0 0
27 2 2.5400000000000000e+00 4.4400000000000004e+00 6.8000000000000007e+00 0 0 0
28 1 5.9900000000000002e+00 7.6000000000000001e-01 5.3100000000000014e+00 0 0 0
29 2 5.9800000000000004e+00 1.9791053000000002e+01 5.3899999999999997e+00 0 0 0
30 2 5.3499999999999996e+00 9.4999999999999996e-01 4.6300000000000008e+00 0 0 0
31 1 7.3000000000000009e-01 1.9900000000000000e+00 2.0800000000000001e+00 0 0 0
33 2 1.4700000000000000e+00 2.1800000000000002e+00 1.4999999999999998e+00 0 0 0
34 1 5.3700000000000001e+00 2.6299999999999999e+00 2.0999999999999999e-01 0 0 0
35 2 4.4500000000000002e+00 2.5299999999999994e+00 4.2999999999999999e-01 0 0 0
36 2 5.8400000000000007e+00 2.3500000000000001e+00 9.9000000000000010e-01 0 0 0
37 1 9.2599999999999998e+00 2.6400000000000001e+00 4.0000000000000001e-02 0 0 0
38 2 1.0180000000000000e+01 2.5699999999999998e+00 2.9999999999999999e-01 0 0 0
39 2 8.7800010000000004e+00 2.3999999999999999e+00 8.2999999999999996e-01 0 0 0
40 1 1.0760000000000002e+01 1.3799999999999999e+00 3.2599999999999993e+00 0 0 0
41 2 1.0050000000000001e+01 1.1100000000000001e+00 3.8300000000000005e+00 0 0 0
42 2 1.0910000000000000e+01 6.3000000000000000e-01 2.6800000000000002e+00 0 0 0
43 1 1.2640000000000001e+01 4.6200000000000001e+00 5.5800000000000001e+00 0 0 0
44 2 1.2000000000000000e+01 4.3700000000000001e+00 4.9100000000000010e+00 0 0 0
45 2 1.2680000000000000e+01 5.5800000000000001e+00 5.5199999999999996e+00 0 0 0
46 1 7.9500000000000002e+00 4.0400000000000000e+00 3.8199999999999994e+00 0 0 0
47 2 8.9000000000000004e+00 4.0000000000000000e+00 3.7599999999999998e+00 0 0 0
48 2 7.6900000000000004e+00 4.6699999999999999e+00 3.1500000000000008e+00 0 0 0
49 1 1.1280001000000000e+01 5.9100000000000001e+00 1.4600000000000000e+00 0 0 0
50 2 1.2240000000000002e+01 5.8799999999999999e+00 1.5200000000000000e+00 0 0 0
51 2 1.1030001000000000e+01 6.6100000000000003e+00 2.0600000000000001e+00 0 0 0
52 1 1.0700001000000000e+01 4.0800000000000001e+00 3.5800000000000010e+00 0 0 0
53 2 1.0930000000000000e+01 4.5700000000000003e+00 2.7900000000000000e+00 0 0 0
54 2 1.0750000000000000e+01 3.1600000000000001e+00 3.3100000000000001e+00 0 0 0
55 1 7.3399999999999999e+00 5.9199999999999999e+00 1.7900000000000005e+00 0 0 0
56 2 8.0000000000000000e+00 5.7199999999999998e+00 1.1200000000000001e+00 0 0 0
57 2 7.3600000000000003e+00 6.8700000000000001e+00 1.8700000000000001e+00 0 0 0
58 1 8.7100000000000009e+00 6.9999999999999984e-01 4.9699999999999998e+00 0 0 0
59 2 8.9700000000000006e+00 1.3300000000000001e+00 5.6400000000000006e+00 0 0 0
60 2 7.7600000000000007e+00 6.6000000000000003e-01 5.0300000000000002e+00 0 0 0
61 1 9.2300000000000004e+00 5.3899999999999997e+00 6.7400000000000002e+00 0 0 0
62 2 9.1999999999999993e+00 4.4400000000000004e+00 6.8000000000000007e+00 0 0 0
63 2 9.9499999999999993e+00 5.6499999999999995e+00 7.3099999999999996e+00 0 0 0
64 1 1.2600000000000000e+01 6.9999999999999984e-01 5.3300000000000018e+00 0 0 0
65 2 1.3520000000000000e+01 7.5000000000000000e-01 5.0700000000000012e+00 0 0 0
66 2 1.2109999999999999e+01 9.3000000000000005e-01 4.5499999999999998e+00 0 0 0
67 1 7.3700000000000001e+00 2.0400000000000000e+00 1.9700000000000002e+00 0 0 0
68 2 7.6500000000000004e+00 2.5000000000000000e+00 2.7599999999999998e+00 0 0 0
69 2 7.4800000000000004e+00 1.1100000000000001e+00 2.1700000000000004e+00 0 0 0
70 1 1.1950001000000000e+01 2.5699999999999998e+00 2.6000000000000001e-01 0 0 0
72 2 1.2699999999999999e+01 2.4199999999999999e+00 8.3999999999999997e-01 0 0 0
73 1 1.5930000000000000e+01 2.6400000000000001e+00 4.0000000000000001e-02 0 0 0
74 2 1.6849997999999999e+01 2.5699999999999998e+00 2.9999999999999999e-01 0 0 0
75 2 1.5440001000000001e+01 2.3999999999999999e+00 8.2999999999999996e-01 0 0 0
76 1 1.7350000000000001e+01 1.3700000000000001e+00 3.2500000000000004e+00 0 0 0
77 2 1.7970001000000000e+01 1.2000000000000000e+00 3.9600000000000004e+00 0 0 0
78 2 1.7520000000000000e+01 6.8000000000000005e-01 2.6099999999999999e+00 0 0 0
79 1 1.9290001000000000e+01 4.6399999999999997e+00 5.4799999999999995e+00 0 0 0
80 2 1.9170000000000002e+01 5.5599999999999987e+00 5.7000000000000011e+00 0 0 0
81 2 1.8989999999999998e+01 4.1699999999999999e+00 6.2599999999999989e+00 0 0 0
82 1 1.4619999999999999e+01 4.0499999999999998e+00 3.7200000000000011e+00 0 0 0
83 2 1.5549999000000000e+01 4.1500000000000004e+00 3.9300000000000002e+00 0 0 0
84 2 1.4170000000000000e+01 4.3300000000000001e+00 4.5199999999999996e+00 0 0 0
85 1 1.8029999000000000e+01 5.9900000000000002e+00 1.4900000000000002e+00 0 0 0
86 2 1.7879999000000002e+01 5.3700000000000001e+00 2.2000000000000002e+00 0 0 0
87 2 1.7329999999999998e+01 5.8200000000000003e+00 8.7000000000000000e-01 0 0 0
88 1 1.7340000000000000e+01 4.0899999999999999e+00 3.4800000000000000e+00 0 0 0
89 2 1.7980000000000000e+01 4.2900000000000000e+00 4.1699999999999999e+00 0 0 0
90 2 1.7350000000000001e+01 3.1400000000000001e+00 3.4000000000000004e+00 0 0 0
91 1 1.3990000999999999e+01 6.0099999999999998e+00 1.7600000000000002e+00 0 0 0
92 2 1.4639998999999998e+01 5.8200000000000003e+00 1.0800000000000001e+00 0 0 0
93 2 1.4180000000000000e+01 5.3799999999999999e+00 2.4500000000000002e+00 0 0 0
94 1 1.5290001000000000e+01 6.8999999999999995e-01 5.0099999999999998e+00 0 0 0
95 2 1.5979999999999999e+01 8.5999999999999999e-01 4.3700000000000010e+00 0 0 0
96 2 1.5460000000000003e+01 1.3100000000000001e+00 5.7200000000000015e+00 0 0 0
97 1 1.5979999999999999e+01 5.2999999999999998e+00 6.7699999999999996e+00 0 0 0
98 2 1.5340000000000000e+01 5.4699999999999998e+00 7.4700000000000006e+00 0 0 0
99 2 1.5809998999999999e+01 5.9900000000000002e+00 6.1299999999999990e+00 0 0 0
100 1 1.9239999999999998e+01 7.6000000000000001e-01 5.2800000000000002e+00 0 0 0
102 2 1.9119999000000000e+01 1.9801053000000000e+01 5.3800000000000008e+00 0 0 0
103 1 1.4040001000000000e+01 2.0400000000000000e+00 1.9700000000000002e+00 0 0 0
104 2 1.4320001000000000e+01 2.5000000000000000e+00 2.7599999999999998e+00 0 0 0
105 2 1.4140000000000001e+01 1.1100000000000001e+00 2.1700000000000004e+00 0 0 0
106 1 1.8649999999999999e+01 2.6000000000000001e+00 3.2000000000000001e-01 0 0 0
129 2 1.9809999000000001e+01 5.9199999999999999e+00 1.5400000000000000e+00 0 0 0
188 2 5.7895999999995569e-02 4.5099999999999998e+00 5.0800000000000001e+00 0 0 0
217 1 2.6399999999999997e+00 9.2599999999999998e+00 1.6000000000000000e-01 0 0 0
220 1 4.0999999999999996e+00 8.0500000000000007e+00 3.2599999999999993e+00 0 0 0
221 2 4.2500000000000000e+00 7.2900000000000009e+00 2.6800000000000002e+00 0 0 0
222 2 3.3799999999999999e+00 7.7700000000000005e+00 3.8300000000000005e+00 0 0 0
223 1 5.9700000000000006e+00 1.1289999000000000e+01 5.5800000000000001e+00 0 0 0
224 2 5.3399999999999999e+00 1.1030001000000000e+01 4.9100000000000010e+00 0 0 0
225 2 6.0099999999999998e+00 1.2240000000000000e+01 5.5199999999999996e+00 0 0 0
226 1 1.3799999999999999e+00 1.0770000000000001e+01 3.7800000000000002e+00 0 0 0
227 2 1.1100000000000001e+00 1.0050000000000001e+01 3.2100000000000000e+00 0 0 0
228 2 6.3000000000000000e-01 1.0910000000000000e+01 4.3499999999999996e+00 0 0 0
229 1 4.6200000000000001e+00 1.2640000000000001e+01 1.4600000000000000e+00 0 0 0
230 2 4.3700000000000001e+00 1.2010000000000000e+01 2.1299999999999999e+00 0 0 0
231 2 5.5700000000000003e+00 1.2680000000000000e+01 1.5100000000000005e+00 0 0 0
232 1 4.0899999999999999e+00 1.0760000000000000e+01 3.5200000000000005e+00 0 0 0
233 2 4.2100000000000000e+00 9.8200000000000003e+00 3.4200000000000008e+00 0 0 0
234 2 3.1499999999999999e+00 1.0880001000000000e+01 3.6200000000000001e+00 0 0 0
235 1 6.9999999999999996e-01 1.2600000000000000e+01 1.7000000000000002e+00 0 0 0
236 2 9.3000000000000005e-01 1.2109999999999999e+01 2.4900000000000002e+00 0 0 0
237 2 7.5000000000000000e-01 1.3520000000000000e+01 1.9600000000000000e+00 0 0 0
238 1 2.0499999999999998e+00 7.4299999999999997e+00 4.9800000000000004e+00 0 0 0
239 2 2.2999999999999998e+00 6.7299999999999995e+00 5.5800000000000001e+00 0 0 0
240 2 1.1000000000000001e+00 7.4600000000000000e+00 5.0400000000000009e+00 0 0 0
241 1 2.6399999999999997e+00 1.2050000000000001e+01 6.7299999999999995e+00 0 0 0
242 2 2.6800000000000002e+00 1.1100000000000000e+01 6.7900000000000000e+00 0 0 0
243 2 1.9900000000000000e+00 1.2309998999999999e+01 7.3899999999999997e+00 0 0 0
244 1 5.9900000000000002e+00 7.4199999999999999e+00 5.3100000000000014e+00 0 0 0
245 2 5.9800000000000004e+00 6.4699999999999998e+00 5.3899999999999997e+00 0 0 0
246 2 5.3499999999999996e+00 7.6100000000000003e+00 4.6300000000000008e+00 0 0 0
247 1 6.9999999999999996e-01 8.7199989999999996e+00 2.0600000000000001e+00 0 0 0
248 2 1.3500000000000001e+00 8.9700000000000006e+00 1.4100000000000001e+00 0 0 0
249 2 6.5999999999999992e-01 7.7599999999999989e+00 2.0000000000000000e+00 0 0 0
250 1 5.3700000000000001e+00 9.2899999999999991e+00 2.0999999999999999e-01 0 0 0
251 2 5.8400000000000007e+00 9.0199999999999996e+00 9.9000000000000010e-01 0 0 0
252 2 4.4500000000000002e+00 9.1999999999999993e+00 4.2999999999999999e-01 0 0 0
253 1 9.3000000000000007e+00 9.2599999999999998e+00 1.6000000000000000e-01 0 0 0
256 1 1.0730000000000002e+01 8.0099999999999998e+00 3.1899999999999999e+00 0 0 0
257 2 9.9499999999999993e+00 7.8300000000000010e+00 3.7100000000000009e+00 0 0 0
258 2 1.1460000000000001e+01 7.8300000000000010e+00 3.7900000000000000e+00 0 0 0
259 1 1.2600000000000000e+01 1.1350000000000000e+01 5.5999999999999996e+00 0 0 0
260 2 1.1870001000000002e+01 1.1170000000000000e+01 5.0000000000000000e+00 0 0 0
261 2 1.3389999000000000e+01 1.1170000000000000e+01 5.0800000000000001e+00 0 0 0
262 1 7.9600000000000000e+00 1.0710000000000001e+01 3.7200000000000011e+00 0 0 0
263 2 8.8900000000000006e+00 1.0820000000000000e+01 3.9300000000000002e+00 0 0 0
264 2 7.5000000000000000e+00 1.0990000000000000e+01 4.5199999999999996e+00 0 0 0
265 1 1.1280001000000000e+01 1.2570000000000000e+01 1.4600000000000000e+00 0 0 0
266 2 1.2240000000000002e+01 1.2539999000000000e+01 1.5200000000000000e+00 0 0 0
267 2 1.1030001000000000e+01 1.3270000000000000e+01 2.0600000000000001e+00 0 0 0
268 1 1.0700001000000000e+01 1.0740000000000000e+01 3.5800000000000010e+00 0 0 0
269 2 1.0750000000000000e+01 9.8200000000000003e+00 3.3100000000000001e+00 0 0 0
270 2 1.0930000000000000e+01 1.1230000000000000e+01 2.7900000000000000e+00 0 0 0
271 1 7.3600000000000003e+00 1.2600000000000000e+01 1.7000000000000002e+00 0 0 0
272 2 7.5899999999999999e+00 1.2109999999999999e+01 2.4900000000000002e+00 0 0 0
273 2 7.4199999999999999e+00 1.3520000000000000e+01 1.9600000000000000e+00 0 0 0
274 1 8.7100000000000009e+00 7.4299999999999997e+00 4.9800000000000004e+00 0 0 0
275 2 7.7600000000000007e+00 7.4600000000000000e+00 5.0400000000000009e+00 0 0 0
276 2 8.9700000000000006e+00 6.7299999999999995e+00 5.5800000000000001e+00 0 0 0
277 1 9.2300000000000004e+00 1.2050000000000001e+01 6.7400000000000002e+00 0 0 0
278 2 9.1999999999999993e+00 1.1100000000000000e+01 6.8000000000000007e+00 0 0 0
279 2 9.9499999999999993e+00 1.2309998999999999e+01 7.3099999999999996e+00 0 0 0
280 1 1.2580000000000000e+01 7.3399999999999999e+00 5.2400000000000002e+00 0 0 0
281 2 1.3530001000000000e+01 7.3600000000000003e+00 5.1600000000000001e+00 0 0 0
282 2 1.2380000000000001e+01 8.0000000000000000e+00 5.9100000000000019e+00 0 0 0
283 1 7.3500000000000005e+00 8.6300000000000008e+00 2.0200000000000000e+00 0 0 0
284 2 7.5099999999999998e+00 9.3200000000000003e+00 2.6699999999999999e+00 0 0 0
285 2 7.9899999999999993e+00 8.8000000000000007e+00 1.3300000000000001e+00 0 0 0
286 1 1.2050000000000001e+01 9.2300000000000004e+00 2.9999999999999999e-01 0 0 0
288 2 1.1090000000000000e+01 9.2100000000000009e+00 2.6000000000000001e-01 0 0 0
289 1 1.5930000000000000e+01 9.3099989999999995e+00 4.0000000000000001e-02 0 0 0
290 2 1.6849997999999999e+01 9.2400000000000002e+00 2.9999999999999999e-01 0 0 0
291 2 1.5440001000000001e+01 9.0600000000000005e+00 8.2999999999999996e-01 0 0 0
292 1 1.7369999000000000e+01 7.9600000000000000e+00 3.3100000000000001e+00 0 0 0
293 2 1.7480000000000000e+01 8.8900000000000006e+00 3.1000000000000001e+00 0 0 0
294 2 1.7649999999999999e+01 7.5099999999999998e+00 2.5200000000000005e+00 0 0 0
295 1 1.9239999999999998e+01 1.1379999999999999e+01 5.5400000000000000e+00 0 0 0
296 2 1.9079999999999998e+01 1.0620001000000000e+01 6.0900000000000007e+00 0 0 0
297 2 1.9950001000000000e+01 1.1119999999999997e+01 4.9600000000000000e+00 0 0 0
298 1 1.4609999999999999e+01 1.0770000000000001e+01 3.8199999999999994e+00 0 0 0
299 2 1.5570001000000000e+01 1.0800000000000001e+01 3.7599999999999998e+00 0 0 0
300 2 1.4359999999999999e+01 1.0070000000000000e+01 3.2200000000000002e+00 0 0 0
301 1 1.8040001000000000e+01 1.2580000000000000e+01 1.4999999999999998e+00 0 0 0
302 2 1.7280000999999999e+01 1.2420000000000002e+01 9.3999999999999995e-01 0 0 0
303 2 1.7770000000000000e+01 1.3289999999999999e+01 2.0800000000000001e+00 0 0 0
304 1 1.7329999999999998e+01 1.0669999999999998e+01 3.5200000000000005e+00 0 0 0
305 2 1.7959999000000000e+01 1.0859999999999999e+01 4.2100000000000009e+00 0 0 0
306 2 1.7520000000000000e+01 1.1299999999999999e+01 2.8300000000000001e+00 0 0 0
307 1 1.4020000000000000e+01 1.2600000000000000e+01 1.7000000000000002e+00 0 0 0
308 2 1.4080000000000000e+01 1.3520000000000000e+01 1.9600000000000000e+00 0 0 0
309 2 1.4260000000000000e+01 1.2109999999999999e+01 2.4900000000000002e+00 0 0 0
310 1 1.5290001000000000e+01 7.3499999999999996e+00 5.0099999999999998e+00 0 0 0
311 2 1.5979999999999999e+01 7.5199999999999996e+00 4.3700000000000010e+00 0 0 0
312 2 1.5460000000000003e+01 7.9699999999999998e+00 5.7200000000000015e+00 0 0 0
313 1 1.5930000000000000e+01 1.2000000000000000e+01 6.7100000000000017e+00 0 0 0
314 2 1.5199999999999999e+01 1.2180000000000000e+01 7.3099999999999996e+00 0 0 0
315 2 1.6709999000000000e+01 1.2180000000000000e+01 7.2199999999999998e+00 0 0 0
316 1 1.9329999999999998e+01 7.3300000000000001e+00 5.2800000000000002e+00 0 0 0
317 2 1.8700001000000000e+01 7.5199999999999996e+00 4.5800000000000001e+00 0 0 0
318 2 1.9139999000000000e+01 7.9800000000000004e+00 5.9600000000000009e+00 0 0 0
319 1 1.4099999000000000e+01 8.7199989999999996e+00 2.0600000000000001e+00 0 0 0
320 2 1.4130000000000001e+01 7.7599999999999989e+00 2.0000000000000000e+00 0 0 0
321 2 1.3389999000000000e+01 8.9700000000000006e+00 1.4600000000000000e+00 0 0 0
322 1 1.8630001000000000e+01 9.3099989999999995e+00 2.7000000000000002e-01 0 0 0
323 2 1.9320000000000000e+01 9.1500009999999996e+00 9.1000000000000003e-01 0 0 0
344 2 1.9799999000000000e+01 1.2460001000000002e+01 1.6599999999999999e+00 0 0 0
433 1 2.6399999999999997e+00 1.5930000000000000e+01 1.6000000000000000e-01 0 0 0
436 1 4.0999999999999996e+00 1.4709999000000000e+01 3.2599999999999993e+00 0 0 0
437 2 3.3799999999999999e+00 1.4429999000000000e+01 3.8300000000000005e+00 0 0 0
438 2 4.2500000000000000e+00 1.3960000000000001e+01 2.6800000000000002e+00 0 0 0
439 1 5.9800000000000004e+00 1.8040001000000000e+01 5.5400000000000000e+00 0 0 0
440 2 5.8200000000000003e+00 1.7329999999999998e+01 6.1700000000000017e+00 0 0 0
441 2 5.3600000000000003e+00 1.7879999000000002e+01 4.8300000000000001e+00 0 0 0
442 1 1.3000000000000003e+00 1.7380001000000000e+01 3.7200000000000011e+00 0 0 0
443 2 2.2300000000000000e+00 1.7480000000000000e+01 3.9300000000000002e+00 0 0 0
444 2 8.3999999999999997e-01 1.7660000000000000e+01 4.5199999999999996e+00 0 0 0
445 1 4.6299999999999999e+00 1.9290001000000000e+01 1.5500000000000000e+00 0 0 0
446 2 4.1600000000000001e+00 1.9000000000000000e+01 7.7000000000000002e-01 0 0 0
447 2 5.5599999999999996e+00 1.9180000000000000e+01 1.3300000000000001e+00 0 0 0
448 1 4.0300000000000002e+00 1.7399999999999999e+01 3.5800000000000010e+00 0 0 0
449 2 4.0899999999999999e+00 1.6480000000000000e+01 3.3100000000000001e+00 0 0 0
450 2 4.2599999999999998e+00 1.7889999000000000e+01 2.7900000000000000e+00 0 0 0
451 1 6.9999999999999996e-01 1.9270000000000000e+01 1.7000000000000002e+00 0 0 0
452 2 9.3000000000000005e-01 1.8780000999999999e+01 2.4900000000000002e+00 0 0 0
453 2 7.5000000000000000e-01 1.9894799999999913e-01 1.9600000000000000e+00 0 0 0
454 1 1.9900000000000000e+00 1.4060000000000000e+01 4.9500000000000002e+00 0 0 0
455 2 2.1699999999999999e+00 1.3279999999999998e+01 5.4699999999999998e+00 0 0 0
456 2 2.1699999999999999e+00 1.4789999999999999e+01 5.5499999999999989e+00 0 0 0
457 1 2.6499999999999999e+00 1.8630001000000000e+01 6.7699999999999996e+00 0 0 0
458 2 2.4800000000000000e+00 1.9320000000000000e+01 6.1299999999999990e+00 0 0 0
459 2 2.0099999999999998e+00 1.8799999000000000e+01 7.4700000000000006e+00 0 0 0
460 1 5.9299999999999997e+00 1.4020000000000000e+01 5.3300000000000018e+00 0 0 0
461 2 5.4400009999999996e+00 1.4260000000000000e+01 4.5499999999999998e+00 0 0 0
462 2 6.8499999999999996e+00 1.4080000000000000e+01 5.0700000000000012e+00 0 0 0
463 1 6.8999999999999995e-01 1.5290001000000000e+01 2.0200000000000000e+00 0 0 0
464 2 1.3199999999999998e+00 1.5460000000000001e+01 1.3300000000000001e+00 0 0 0
465 2 8.4999999999999998e-01 1.5980000000000000e+01 2.6699999999999999e+00 0 0 0
466 1 5.3899999999999997e+00 1.5970000000000001e+01 2.9999999999999999e-01 0 0 0
467 2 4.4299999999999997e+00 1.6000000000000000e+01 2.7000000000000002e-01 0 0 0
469 1 9.2599999999999998e+00 1.5970000000000001e+01 4.0000000000000001e-02 0 0 0
470 2 8.7800010000000004e+00 1.5720000000000002e+01 8.2999999999999996e-01 0 0 0
471 2 1.0180000000000000e+01 1.5900001000000000e+01 2.9999999999999999e-01 0 0 0
472 1 1.0770000000000000e+01 1.4609999999999999e+01 3.2200000000000002e+00 0 0 0
473 2 1.0800000000000001e+01 1.5570001000000000e+01 3.2800000000000007e+00 0 0 0
474 2 1.0060000000000000e+01 1.4359999999999998e+01 3.8199999999999994e+00 0 0 0
475 1 1.2630000000000001e+01 1.7959999000000000e+01 5.4799999999999995e+00 0 0 0
476 2 1.2510000000000000e+01 1.8890001000000002e+01 5.7000000000000011e+00 0 0 0
477 2 1.2330000000000000e+01 1.7500000000000000e+01 6.2599999999999989e+00 0 0 0
478 1 7.9600000000000000e+00 1.7380001000000000e+01 3.7200000000000011e+00 0 0 0
479 2 7.5000000000000000e+00 1.7660000000000000e+01 4.5199999999999996e+00 0 0 0
480 2 8.8900000000000006e+00 1.7480000000000000e+01 3.9300000000000002e+00 0 0 0
481 1 1.1300000000000001e+01 1.9290001000000000e+01 1.5500000000000000e+00 0 0 0
482 2 1.2220000000000001e+01 1.9180000000000000e+01 1.3300000000000001e+00 0 0 0
483 2 1.0830000000000000e+01 1.9000000000000000e+01 7.7000000000000002e-01 0 0 0
484 1 1.0670000000000000e+01 1.7329999999999998e+01 3.5200000000000005e+00 0 0 0
485 2 1.0859999999999999e+01 1.7970001000000000e+01 2.8300000000000001e+00 0 0 0
486 2 1.1300000000000001e+01 1.7530000999999999e+01 4.2100000000000009e+00 0 0 0
487 1 7.3300000000000001e+00 1.9340000000000000e+01 1.7600000000000002e+00 0 0 0
488 2 7.5199999999999996e+00 1.8710000999999998e+01 2.4500000000000002e+00 0 0 0
489 2 7.9800000000000004e+00 1.9139999000000000e+01 1.0800000000000001e+00 0 0 0
490 1 8.6600000000000001e+00 1.4060000000000000e+01 4.9500000000000002e+00 0 0 0
491 2 8.8300000000000001e+00 1.4789999999999999e+01 5.5499999999999989e+00 0 0 0
492 2 8.8300000000000001e+00 1.3279999999999998e+01 5.4699999999999998e+00 0 0 0
493 1 9.3099989999999995e+00 1.8630001000000000e+01 6.7699999999999996e+00 0 0 0
494 2 8.6799990000000005e+00 1.8799999000000000e+01 7.4700000000000006e+00 0 0 0
495 2 9.1500009999999996e+00 1.9320000000000000e+01 6.1299999999999990e+00 0 0 0
496 1 1.2660000000000000e+01 1.4080000000000000e+01 5.3100000000000014e+00 0 0 0
497 2 1.2640000000000001e+01 1.3129999000000000e+01 5.3899999999999997e+00 0 0 0
498 2 1.2020000000000000e+01 1.4279999999999999e+01 4.6300000000000008e+00 0 0 0
499 1 7.4299999999999988e+00 1.5279999999999999e+01 2.0200000000000000e+00 0 0 0
500 2 7.5799999999999992e+00 1.6039999000000002e+01 2.5900000000000003e+00 0 0 0
501 2 6.7100000000000009e+00 1.5559999000000001e+01 1.4500000000000000e+00 0 0 0
502 1 1.1990000000000000e+01 1.5930000000000000e+01 3.2000000000000001e-01 0 0 0
505 1 1.6000000000000000e+01 1.6000000000000000e+01 1.0000000000000001e-01 0 0 0
506 2 1.5349999000000000e+01 1.5800000000000001e+01 7.8000000000000014e-01 0 0 0
508 1 1.7399999999999999e+01 1.4670000000000000e+01 3.1899999999999999e+00 0 0 0
509 2 1.6610001000000000e+01 1.4499999999999998e+01 3.7100000000000009e+00 0 0 0
510 2 1.8120000999999998e+01 1.4490000000000000e+01 3.7900000000000000e+00 0 0 0
511 1 1.9239999999999998e+01 1.8049999000000000e+01 5.5400000000000000e+00 0 0 0
512 2 1.9079999999999998e+01 1.7280000999999999e+01 6.0900000000000007e+00 0 0 0
513 2 1.9950001000000000e+01 1.7780000999999999e+01 4.9600000000000000e+00 0 0 0
514 1 1.4619999999999999e+01 1.7380001000000000e+01 3.7200000000000011e+00 0 0 0
515 2 1.5549999000000000e+01 1.7480000000000000e+01 3.9300000000000002e+00 0 0 0
516 2 1.4170000000000000e+01 1.7660000000000000e+01 4.5199999999999996e+00 0 0 0
517 1 1.7949998999999998e+01 1.9309999000000001e+01 1.4600000000000000e+00 0 0 0
518 2 1.8899999999999999e+01 1.9340000000000000e+01 1.5100000000000005e+00 0 0 0
519 2 1.7690000999999999e+01 1.8670000000000002e+01 2.1299999999999999e+00 0 0 0
520 1 1.7340000000000000e+01 1.7420000000000002e+01 3.4800000000000000e+00 0 0 0
521 2 1.7980000000000000e+01 1.7610001000000000e+01 4.1699999999999999e+00 0 0 0
522 2 1.7350000000000001e+01 1.6469999000000001e+01 3.4000000000000004e+00 0 0 0
523 1 1.3990000999999999e+01 1.9340000000000000e+01 1.7600000000000002e+00 0 0 0
524 2 1.4180000000000000e+01 1.8710000999999998e+01 2.4500000000000002e+00 0 0 0
525 2 1.4639998999999998e+01 1.9139999000000000e+01 1.0800000000000001e+00 0 0 0
526 1 1.5380000000000001e+01 1.4099999000000000e+01 4.9800000000000004e+00 0 0 0
527 2 1.5629999000000002e+01 1.3400001000000001e+01 5.5800000000000001e+00 0 0 0
528 2 1.4420000000000000e+01 1.4130000000000003e+01 5.0400000000000009e+00 0 0 0
529 1 1.5979999999999999e+01 1.8630001000000000e+01 6.7699999999999996e+00 0 0 0
530 2 1.5340000000000000e+01 1.8799999000000000e+01 7.4700000000000006e+00 0 0 0
531 2 1.5809998999999999e+01 1.9320000000000000e+01 6.1299999999999990e+00 0 0 0
532 1 1.9299999000000000e+01 1.4060000000000000e+01 5.2199999999999998e+00 0 0 0
533 2 1.9059999000000001e+01 1.4559999000000001e+01 5.9999999999999991e+00 0 0 0
534 2 1.9239999999999998e+01 1.3150001000000000e+01 5.4900000000000002e+00 0 0 0
535 1 1.4090000000000000e+01 1.5279999999999999e+01 2.0200000000000000e+00 0 0 0
536 2 1.4239999999999998e+01 1.6039999000000002e+01 2.5900000000000003e+00 0 0 0
537 2 1.3380001000000002e+01 1.5559999000000001e+01 1.4500000000000000e+00 0 0 0
538 1 1.8710000999999998e+01 1.5970000000000001e+01 2.9999999999999999e-01 0 0 0
540 2 1.7760000000000002e+01 1.6000000000000000e+01 2.7000000000000002e-01 0 0 0
573 2 1.9950001000000000e+01 1.5499999999999998e+01 1.5600000000000003e+00 0 0 0
641 2 2.0789699999999542e-01 1.4020000000000000e+01 5.1600000000000001e+00 0 0 0
649 1 2.5800000000000001e+00 2.6600000000000001e+00 7.0700000000000003e+00 0 0 0
650 2 3.5400000000000000e+00 2.6499999999999999e+00 7.1199999999999992e+00 0 0 0
651 2 2.3799999999999999e+00 2.0200000000000000e+00 6.3799999999999999e+00 0 0 0
652 1 4.0700000000000003e+00 1.3400000000000001e+00 1.0130000000000001e+01 0 0 0
659 2 1.2000000000000000e+00 4.6500000000000004e+00 1.0010000000000000e+01 0 0 0
661 1 4.6200000000000001e+00 5.9800000000000004e+00 8.3899989999999995e+00 0 0 0
662 2 5.5700000000000003e+00 6.0199999999999996e+00 8.4500010000000003e+00 0 0 0
663 2 4.3700000000000001e+00 5.3399999999999999e+00 9.0600000000000005e+00 0 0 0
666 2 4.2100000000000000e+00 3.1499999999999999e+00 1.0349999000000000e+01 0 0 0
667 1 6.7000000000000004e-01 5.9199999999999999e+00 8.7199989999999996e+00 0 0 0
668 2 1.3300000000000001e+00 5.7199999999999998e+00 8.0599989999999995e+00 0 0 0
669 2 6.8999999999999995e-01 6.8700000000000001e+00 8.8099990000000012e+00 0 0 0
679 1 6.8999999999999995e-01 1.9700000000000000e+00 8.9600000000000009e+00 0 0 0
680 2 1.3199999999999998e+00 2.1299999999999999e+00 8.2599999999999998e+00 0 0 0
681 2 8.4999999999999998e-01 2.6600000000000001e+00 9.5999990000000004e+00 0 0 0
682 1 5.2999999999999998e+00 2.6499999999999999e+00 7.2000000000000002e+00 0 0 0
683 2 5.9900000000000002e+00 2.4900000000000002e+00 7.8399999999999999e+00 0 0 0
684 2 5.4699999999999998e+00 2.0099999999999998e+00 6.5000000000000009e+00 0 0 0
685 1 9.2599999999999998e+00 2.6400000000000001e+00 6.9700000000000015e+00 0 0 0
686 2 1.0180000000000000e+01 2.5699999999999998e+00 7.2300000000000013e+00 0 0 0
687 2 8.7800010000000004e+00 2.3999999999999999e+00 7.7599999999999998e+00 0 0 0
688 1 1.0760000000000002e+01 1.3799999999999999e+00 1.0190001000000001e+01 0 0 0
690 2 1.0910000000000000e+01 6.3000000000000000e-01 9.6100010000000005e+00 0 0 0
696 2 7.6900000000000004e+00 4.6699999999999999e+00 1.0080000000000002e+01 0 0 0
697 1 1.1339999000000001e+01 5.9400000000000004e+00 8.3699999999999992e+00 0 0 0
698 2 1.1160000999999999e+01 5.2199999999999998e+00 8.9700000000000006e+00 0 0 0
699 2 1.1170000000000000e+01 6.7299999999999995e+00 8.8900000000000023e+00 0 0 0
702 2 1.0690001000000001e+01 3.1400000000000001e+00 1.0340000000000002e+01 0 0 0
703 1 7.3399999999999999e+00 5.9199999999999999e+00 8.7199989999999996e+00 0 0 0
704 2 8.0000000000000000e+00 5.7199999999999998e+00 8.0599989999999995e+00 0 0 0
705 2 7.3600000000000003e+00 6.8700000000000001e+00 8.8099990000000012e+00 0 0 0
715 1 7.3700000000000001e+00 2.0400000000000000e+00 8.9000000000000004e+00 0 0 0
716 2 7.6500000000000004e+00 2.5000000000000000e+00 9.6899999999999995e+00 0 0 0
717 2 7.4800000000000004e+00 1.1100000000000001e+00 9.1100010000000005e+00 0 0 0
718 1 1.1990000000000000e+01 2.6000000000000001e+00 7.2599999999999998e+00 0 0 0
719 2 1.2180000000000000e+01 1.8799999999999999e+00 6.6600000000000001e+00 0 0 0
720 2 1.2180000000000000e+01 3.3900000000000006e+00 6.7500000000000000e+00 0 0 0
721 1 1.5990000000000000e+01 2.5800000000000005e+00 7.0000000000000000e+00 0 0 0
722 2 1.5330000000000000e+01 2.3900000000000001e+00 7.6699999999999999e+00 0 0 0
723 2 1.5970000000000001e+01 3.5400000000000000e+00 6.9199999999999999e+00 0 0 0
724 1 1.7430000000000000e+01 1.3799999999999999e+00 1.0190001000000001e+01 0 0 0
725 2 1.7570000000000000e+01 6.3000000000000000e-01 9.6100010000000005e+00 0 0 0
732 2 1.4359999999999999e+01 4.6699999999999999e+00 1.0080000000000002e+01 0 0 0
733 1 1.8029999000000000e+01 5.9900000000000002e+00 8.4299999999999997e+00 0 0 0
734 2 1.7329999999999998e+01 5.8200000000000003e+00 7.7999999999999998e+00 0 0 0
735 2 1.7879999000000002e+01 5.3700000000000001e+00 9.1399989999999995e+00 0 0 0
737 2 1.7350000000000001e+01 3.1400000000000001e+00 1.0340000000000002e+01 0 0 0
739 1 1.4090000000000000e+01 5.9199999999999999e+00 8.6900010000000005e+00 0 0 0
740 2 1.4199999999999999e+01 6.8600000000000003e+00 8.7900000000000009e+00 0 0 0
741 2 1.3140000000000001e+01 5.7999999999999998e+00 8.5899999999999999e+00 0 0 0
751 1 1.4090000000000000e+01 1.9600000000000000e+00 8.9499999999999993e+00 0 0 0
752 2 1.3380001000000002e+01 2.2300000000000000e+00 8.3800000000000008e+00 0 0 0
753 2 1.4239999999999998e+01 2.7100000000000000e+00 9.5299999999999994e+00 0 0 0
754 1 1.8710000999999998e+01 2.6400000000000001e+00 7.2300000000000013e+00 0 0 0
755 2 1.7760000000000002e+01 2.6699999999999999e+00 7.2000000000000002e+00 0 0 0
756 2 1.8960000999999998e+01 1.9900000000000000e+00 6.5800000000000018e+00 0 0 0
777 2 1.9809999000000001e+01 5.9199999999999999e+00 8.4800000000000004e+00 0 0 0
865 1 2.5800000000000001e+00 9.3200000000000003e+00 7.0700000000000003e+00 0 0 0
866 2 2.3799999999999999e+00 8.6799990000000005e+00 6.3799999999999999e+00 0 0 0