LAMMPS data file via write_data, version 15 Apr 2020, timestep = 250000

1944 atoms
2 atom types

-2.5251061086546756e-01 4.0234615610864132e+01 xlo xhi
1.5925905558923859e-01 1.9831793944410727e+01 ylo yhi
2.0982503090654880e-01 2.0590946969093068e+01 zlo zhi
4.0093828734854651e-03 -4.6133657694483274e-04 1.3415618724634585e-03 xy xz yz

Masses

1 16
2 2

Atoms # atomic

491 2 7.9505635325622368e+00 4.6713278522425812e+00 5.1417927480615235e+00 0 1 0
1160 2 1.4424259980815417e+01 1.6218804902530561e+01 6.5583458352392894e+00 0 0 0
90 2 1.3998141333675473e+01 9.4804402417060540e+00 4.6707954794333739e+00 0 0 0
905 2 1.4235629544785859e+01 4.8891308507849640e+00 5.3871773600245794e+00 0 0 0
891 2 2.7896469213246871e+00 1.2241184103993394e+01 1.1015818493886493e+00 0 0 0
669 2 -1.0842430041070983e-01 1.7532988483845312e+01 4.7277131307376070e+00 0 0 0
449 2 9.6399729576551287e+00 8.3754082235114158e-01 4.9352182186321745e+00 0 1 0
305 2 1.3604352465042121e+01 1.8163002472225863e+01 1.0181399091654393e+01 0 0 1
725 2 1.8313246794161941e+01 2.4821547863899549e+00 7.2649690170944776e+00 0 0 0
1101 2 9.1502182065999698e+00 7.5977984574482003e+00 9.8062231494683214e+00 0 1 0
672 2 6.8697614124163202e+00 1.5794758974156592e+01 2.7265416777076710e+00 0 -1 0
535 1 1.6556971174717223e+01 1.6853432343991813e+01 5.5694793719417559e+00 0 0 0
1617 2 3.4145386077499453e+00 5.0118595197312068e+00 1.0180157313188731e+01 0 1 0
1729 1 6.3442097066693401e+00 6.3104384565352700e-01 2.4721231117416345e+00 0 1 0
481 1 1.1982934774344292e+01 1.4658432918427099e+01 6.1759723931563979e+00 0 0 0
705 2 5.6799673384279954e+00 1.7619407939639416e+01 9.8848049138865672e+00 0 0 -1
1135 1 3.1383546633501371e+00 1.0655504826455122e+01 4.0103525096768049e+00 0 1 0
1375 1 1.1212798697974234e+01 1.7728338300358395e+01 6.0350710492429309e+00 0 0 1
1804 1 9.5993969714972547e+00 1.6490395550951742e+01 3.8767536129696372e+00 0 0 1
966 2 1.1607068779006870e+01 1.3069354906723962e+00 1.0276950396376318e+01 0 1 0
1559 2 1.3509131090304869e+01 1.9316882275133871e+01 4.1858229271518752e+00 0 0 1
437 2 6.8251732085324086e+00 5.3144909488659868e+00 1.4648420244568137e+00 0 0 0
1527 2 6.6746993962875107e+00 1.3856328939437484e+01 7.4817188371591588e+00 0 0 1
467 2 1.3464048715161352e+01 1.9746053962107105e+01 6.7937193870696344e+00 0 0 0
1832 2 8.8595187151839756e+00 1.7715850109172194e+01 8.6227889768735793e+00 0 -1 0
1749 2 1.1712401945812501e+00 1.1289127293516993e+01 6.6652965369468804e+00 0 0 1
1323 2 3.0888468799875390e+00 1.5017371619094266e+01 6.2647284235549181e+00 0 0 0
1158 2 1.1286095075911911e+01 1.1162725256547864e+01 7.7473353222022689e+00 0 0 0
1585 1 1.6606848565976971e+01 1.5323050494705377e+01 2.4363658315697967e-01 0 0 1
1610 2 5.7720958378342599e+00 1.5356602444192527e+01 1.0386912821208115e+01 0 0 1
750 2 1.7590869907938171e+01 6.3451556385581682e+00 2.3396511643296716e+00 0 0 1
921 2 1.9949303228203052e-01 1.3304779949842134e+00 5.4185579308262035e+00 0 1 0
1786 1 2.2826608348407236e+00 1.6585541028324197e+01 6.3896846124162732e+00 0 0 1
1743 2 3.3480657441643684e+00 1.4219404610063413e+00 1.0032883683162739e+01 0 1 0
1606 1 9.0052275157254140e+00 9.5429194420875181e+00 5.9030692903257282e+00 0 -1 0
1576 1 1.9098127908324088e+01 7.2502849143833785e+00 5.1381671563832798e+00 0 0 1
954 2 1.3105365401974776e+01 1.2137681242969638e+01 1.6471271497553355e+00 0 0 1
689 2 1.4860846165871747e+01 1.6470829776181684e+01 2.4601775455693380e+00 0 -1 0
1540 1 3.0348850020252942e+00 3.3779268777711096e+00 1.2901818669403877e+00 0 0 1
1381 1 1.7661077701861910e+01 4.3918152203046290e+00 9.9441011395812033e+00 0 0 0
1098 2 4.1495192433952734e+00 7.5007711854721908e+00 6.6701373194109461e+00 0 1 0
1100 2 8.2382211015963733e+00 6.9738539440186127e+00 8.6923104749951197e+00 0 0 0
906 2 1.5464061938203013e+01 5.9235785761459328e+00 5.6863614102469411e+00 0 0 0
1089 2 8.9435634791907170e-01 8.3243697271774550e+00 1.0293539262718001e+01 0 1 0
1172 2 1.5405541133711882e+01 1.9338365309805969e+01 9.8078870888164467e+00 0 -1 0
1306 1 7.8516690167145970e+00 4.2640567622642217e-01 5.2039473173319628e+00 0 0 1
486 2 8.8535028894711658e+00 8.4169712800887808e+00 2.0909182178019909e+00 0 0 0
1113 2 6.6154938720962688e+00 1.3554558429345640e+01 9.8202916838968832e+00 0 0 0
47 2 4.2386523729932399e+00 1.0872962482344930e+01 5.4761717813554887e+00 0 -1 0
716 2 1.5252465989078198e+01 1.6020870495139177e+00 2.2997056891788930e+00 0 0 1
1803 2 1.3006642878253469e+01 5.0770015143375673e+00 7.9629549951042167e+00 0 1 1
650 2 5.2456829927762270e+00 1.6583739192023131e+01 5.8614616164948634e+00 0 -1 0
898 1 2.8605702573725647e+00 6.0904659514495973e+00 2.8618834761134226e+00 0 0 0
726 2 1.8310107990467714e+01 3.6212676615108443e+00 8.5059558524292775e+00 0 0 0
28 1 3.9634441120625512e+00 1.2359594372712889e+01 9.2269801622139163e+00 0 -1 0
1583 2 1.1316895107018551e+01 1.5060488259866979e+01 9.1579010705926418e+00 0 0 0
1831 1 8.2411558159420988e+00 1.7100753691707066e+01 8.2295244177773359e+00 0 -1 0
1561 1 4.4417352808535551e+00 1.5909182339439201e+00 7.1051182323258208e+00 0 1 0
1731 2 5.6906941027140059e+00 1.9588866235428068e+01 2.6198383806695529e+00 0 0 0
1560 2 1.3544154468042164e+01 1.8268756076731055e+01 5.3199218811802229e+00 0 0 1
443 2 6.0261625868773159e+00 5.2721613866781292e+00 4.2693113109635021e+00 0 1 0
301 1 1.6323295922959009e+01 2.1316842453304945e+00 9.6348744805133215e+00 0 0 -1
1128 2 9.2167109231816386e+00 4.0328051896677675e+00 8.0053546252547854e+00 0 1 1
896 2 8.2323673216197975e+00 6.6234123176153146e+00 6.4142791217541344e+00 0 0 0
480 2 1.7266857647137339e+01 4.4242456162258997e-01 1.1555518722747284e+00 0 1 -1
1341 2 1.5764459855446923e+01 1.0714184015097235e+01 7.4681578593355589e+00 0 0 1
1543 1 1.8641966912829435e+00 1.2576717857495431e+01 7.4923679929358764e+00 0 0 0
1613 2 8.7858933805554589e+00 1.8735822959221924e+01 1.0726352379512472e+00 0 0 1
302 2 1.5881064079501723e+01 2.3664746979594500e+00 8.7668247291496861e+00 0 0 -1
873 2 5.1079826019750092e+00 1.2753943858169819e+01 1.5063994048145515e+00 0 0 0
1810 1 1.8612157610369984e+01 8.9809804095713677e+00 5.5561140068027459e-01 0 0 1
913 1 1.7747535209993057e+01 1.8584800074508713e+01 3.7844568354704782e+00 0 0 0
235 1 1.0240363306697944e+01 1.2921018322640615e+01 3.1890954481238141e+00 0 0 0
273 2 1.2965917357170769e+01 8.9863437791105749e+00 1.6256869481263343e+00 0 0 1
1376 2 1.1139932579147773e+01 1.8554300679100397e+01 5.4554517892062409e+00 0 0 1
1084 1 2.8453913155420967e+00 8.8079122995816590e+00 7.5593080285209302e+00 0 0 0
483 2 1.2466580164304052e+01 1.3925919495009369e+01 5.7664476599697574e+00 0 0 0
49 1 1.0443991548832713e+01 1.8727754840160994e+01 3.0261709527360590e+00 0 -1 0
1521 2 1.4774008491127690e+01 7.7900445134466096e+00 9.6342464683297422e+00 0 0 1
1121 2 1.3166185442334196e+01 1.5217357784769053e+01 3.3624331489189987e+00 0 0 0
1612 1 8.6988401747574802e+00 1.9668722742658396e+01 1.2902751140324531e+00 0 0 1
1137 2 3.2819713611084218e+00 9.9348100630425460e+00 3.3569437569014786e+00 0 1 0
88 1 1.3395807124440532e+01 1.0114819132057155e+01 5.1596869070032874e+00 0 0 0
736 1 1.7401336830885249e+01 7.8247429286451622e+00 3.0139243822766879e+00 0 0 0
32 2 2.6766550138176917e+00 1.6032298242069494e+01 8.4279198469442740e-01 1 -1 0
704 2 6.7567324418105779e+00 1.7539049236150614e+01 8.7837936578061786e+00 0 0 -1
100 1 1.9546962540188872e+01 1.8320801410530045e+01 6.2180663537261873e+00 0 -1 0
739 1 7.8858497299037165e+00 1.2333783498383335e+01 2.2269323461536281e+00 0 0 1
1162 1 1.2008152328478426e+01 2.3261837615217535e+00 3.5725164575943915e+00 0 1 1
1366 1 1.8534964333849366e+01 1.6698268175176516e+01 1.9262527896124311e+00 0 0 1
457 1 1.7888629236648317e+01 8.5551722153551424e+00 9.7820517023847486e+00 0 1 0
1099 1 8.2786225251578838e+00 7.2450979044907182e+00 9.6667232471341844e+00 0 1 0
1322 2 3.6142081906485970e+00 1.4023883448339209e+01 5.1477649032768404e+00 0 0 1
492 2 7.3826874493059140e+00 3.7535216604298562e+00 3.9530770494295391e+00 0 1 0
1140 2 1.0563530002867202e+01 5.0001375822470813e+00 2.6641502225534408e+00 0 0 1
537 2 1.7059365141164125e+01 1.6136638657125758e+01 5.9624250821096885e+00 0 0 0
1311 2 1.7613113357002707e+01 1.5577202530628655e+01 9.6542012853053603e+00 0 0 0
29 2 3.7832518821367049e+00 1.2962122311179794e+01 9.9726950027525625e+00 0 0 0
7 1 -2.0208622149264371e-01 1.3925786294856659e+01 8.3058769550334599e+00 0 -1 0
1086 2 3.4021654807495700e+00 9.4663233815795511e+00 7.1086095482541758e+00 0 0 0
1300 1 6.3486158345184638e+00 1.0372909082561270e+01 8.0107062520774193e+00 0 0 0
665 2 1.0418876920469395e+00 5.0919332219996676e+00 5.7152994237084309e+00 0 0 0
941 2 1.5082997117635927e+01 5.4360447286374058e-01 4.9574855211323445e+00 0 1 1
1184 2 1.0482598935756352e+01 3.2898492654456910e+00 1.0150925082041546e+01 0 0 0
1093 1 1.7066988168483569e+01 3.7683608579795846e+00 4.1656710415889009e+00 0 2 0
1778 2 1.0045617413407721e+01 4.8321592398537844e-01 8.3390383381693383e+00 0 0 0
683 2 3.9287881527469191e+00 1.4788815962563222e+01 3.4253320667814893e+00 0 -1 0
1812 2 1.9014367243871792e+01 8.8573147548263265e+00 1.4004514567498920e+00 0 0 1
251 2 6.2522997078665359e+00 1.1163975604163470e+01 4.7313306103598398e+00 0 -1 0
1792 1 1.0644334113088600e+01 1.8640450591568747e+01 8.5405057703781218e+00 0 -1 1
1826 2 1.9400484856400283e+01 4.1287348593009221e-01 6.8116686347461286e-01 0 1 1
1367 2 1.8269931898393708e+01 1.7370394868510143e+01 2.5422354667736480e+00 0 0 1
11 2 1.0318389550394518e+00 1.9494583229143338e+01 1.0737756134200229e+00 0 -1 0
1395 2 1.5322828447893979e+01 2.4054275982698567e+00 6.4975790454233255e+00 0 0 0
1806 2 9.9104597415959184e+00 1.7337869036946021e+01 3.4086584612878106e+00 0 0 1
1771 1 1.4632932120936598e+01 7.9826732795329676e+00 4.0937655301041165e+00 0 0 0
740 2 7.3604201747511571e+00 1.2335166175093294e+01 3.0865092868967889e+00 0 0 1
105 2 1.4294706721410442e+01 5.0744247904787603e+00 2.9521483597497120e+00 0 0 0
1519 1 1.5545457110054191e+01 7.1746489935864206e+00 9.7156403945874121e+00 0 0 1
1340 2 1.5654541238711392e+01 1.2014431902778149e+01 8.2572412422436674e+00 0 0 1
742 1 1.6087894300178380e+01 1.3260298062794327e+01 5.1729371525476733e+00 0 -1 0
711 2 1.9196454730549899e+01 4.2196133452417275e+00 6.2501241380603396e+00 0 0 0
1302 2 7.0920536020307035e+00 1.0856387536594500e+01 8.4790567370013150e+00 0 0 0
1562 2 3.7672513340978115e+00 2.1367765744311513e+00 6.6743800278962926e+00 0 1 0
507 2 6.6250191138726597e+00 4.3053698035599810e+00 9.2303086798641356e+00 0 0 1
1525 1 7.0333766810663745e+00 1.3784297299829754e+01 6.6070595235455496e+00 0 0 1
64 1 1.5861829049943371e+01 8.8490975084723118e+00 6.6411354666084454e+00 0 0 -1
900 2 2.5501875791505380e+00 5.5012009265102844e+00 2.1077871405291759e+00 0 0 0
485 2 8.0000506273573588e+00 7.0288615962928409e+00 1.6192904082086295e+00 0 0 0
454 1 4.3069125892550879e+00 1.8232453207328458e+01 6.7058824757136133e+00 0 0 0
971 2 1.3506054743815756e+01 1.1755978663116183e+01 4.7677815956471585e+00 0 0 0
1618 1 1.6133933737351743e+01 1.8585601288189022e+01 7.5986882205367330e+00 0 -1 0
701 2 8.7972181809655012e+00 9.9170611101269710e+00 3.9024129586985934e+00 0 0 -1
1339 1 1.6004211691542000e+01 1.1641756424637254e+01 7.4361242735695532e+00 0 0 1
236 2 9.3973639524732526e+00 1.2896760289502341e+01 2.7387058168607461e+00 0 0 0
229 1 8.3446087648811695e-01 1.2871057021930332e+01 4.2897596594970233e+00 0 0 0
1155 2 1.7949683921639870e+01 1.2851766771690182e+01 7.1395600706842401e+00 0 1 0
262 1 1.1228548215735493e+01 1.6117587586777592e+01 8.5075216336641346e-01 0 0 0
233 2 1.3215796949895616e+01 1.0869501908313646e+01 6.8734541652189298e+00 0 0 -1
685 1 8.1200027254081775e+00 1.7428347927277791e+01 5.6352635040881776e+00 0 0 0
270 2 1.9114855138767236e+01 1.4920409519557873e+01 5.8392089332877459e+00 0 0 0
304 1 1.2734421171185105e+01 1.7731903871463516e+01 1.0141071643471971e+01 0 0 1
710 2 1.8486303576823317e+01 4.4352022219934755e+00 4.8638498689329728e+00 0 0 0
1096 1 5.0360078149930532e+00 7.5254812368021575e+00 6.3391150981578681e+00 0 1 0
1730 2 7.1135536268864090e+00 1.9416318482278816e-01 2.0089800738604584e+00 0 1 0
219 2 1.2579737290253643e+01 8.5867619885120874e+00 9.4906441465663445e+00 0 0 0
743 2 1.5067316754415026e+01 1.3106767663074880e+01 5.1200334965449503e+00 0 -1 0
684 2 3.9200388014838552e+00 1.3273187117348666e+01 3.1206412004371122e+00 0 -1 0
226 1 -2.4630343228552737e-01 1.2474436306462895e+01 2.0161544060672885e+00 0 0 0
1120 1 1.2237426326519191e+01 1.4933497757436799e+01 3.2427038567425783e+00 0 0 0
748 1 1.7941977279918451e+01 5.4989628071613774e+00 2.0331373285679493e+00 0 0 1
1816 1 1.3393318767411037e+01 3.9266487188091570e-01 4.4888251708567084e-01 0 2 1
451 1 2.4592286123665708e+00 9.9265720586088708e+00 1.0019439130502150e+01 0 0 -1
225 2 5.3743681859895513e+00 2.1363001423611676e+00 3.3835656986223546e+00 0 1 0
1794 2 1.0951015127035044e+01 1.8214516091944581e+01 7.7297620080995504e+00 0 -1 1
484 1 8.9174595381468240e+00 7.4966256790746559e+00 1.6664256112495579e+00 0 0 0
1592 2 1.6481723547284037e+01 1.1402680714485287e+01 1.6858583498604143e+00 0 0 1
258 2 6.2699309583893967e+00 9.4808246266040950e+00 3.0463902248946968e+00 0 0 1
442 1 5.4027232291712446e+00 5.9216382047213640e+00 3.8803035136944688e+00 0 1 0
1581 2 4.3263199296312482e-01 3.4150903339969124e-01 7.3547118410531045e+00 0 0 0
468 2 1.3194472307533790e+01 1.8950336464762092e+01 8.0179081876931040e+00 0 0 1
250 1 6.4434933938743564e+00 1.2058784437804778e+01 4.4413764162301277e+00 0 -1 0
479 2 1.6906971573511328e+01 1.9535363415363111e+01 2.5401010733514684e+00 0 0 -1
453 2 3.1030728823750509e+00 1.0665167084435694e+01 1.0151344936328321e+01 0 -1 -1
681 2 6.7659507218668979e-02 1.0279827010961414e+01 9.1346238805489381e+00 0 0 0
1208 2 1.9723779392687270e+01 1.9604034007711526e+01 8.8435472044502141e+00 0 0 0
895 1 7.7603961476191401e+00 7.1943856426665631e+00 7.0393351921110163e+00 0 0 0
1182 2 1.7685871016251724e+01 9.2702175256732156e-01 9.4025669405445687e+00 0 1 0
1159 1 1.3822766813406277e+01 1.6993184693524473e+01 6.6032007233793015e+00 0 0 0
1526 2 6.6438200796369653e+00 1.4608198023459977e+01 6.1221108421396426e+00 0 0 1
686 2 8.5960983855338515e+00 1.7103597757097372e+01 4.7678827848979868e+00 0 0 0
940 1 1.5621753003076737e+01 1.3716226611274940e+00 5.0791481513451240e+00 0 1 1
74 2 1.8233003848063923e+01 7.6896100855985212e+00 8.4929214329685117e+00 0 0 0
744 2 1.6307054279396844e+01 1.3754691377182658e+01 4.2991373074685137e+00 0 -1 0
1139 2 1.0757140423085106e+01 3.4575544490436800e+00 2.9433128046947945e+00 0 0 1
889 1 2.0896361285194796e+00 1.2376598589786891e+01 4.2032228791253817e-01 0 0 0
1620 2 1.6743700559409834e+01 1.9387209869197488e+01 7.4354469120766149e+00 0 -1 0
73 1 1.8352721092200969e+01 7.0159031921947319e+00 7.7428144499366081e+00 0 0 0
1591 1 1.5915125040749107e+01 1.0688557669525654e+01 2.0450311051253531e+00 0 0 1
920 2 1.2358456876883210e+00 2.4109902310502926e+00 5.6785587690419543e+00 0 1 0
698 2 1.3351506965642146e+01 1.9316737773023707e+01 1.9413835507776087e+00 0 0 1
455 2 4.1364064679216472e+00 1.9193512179122600e+01 6.5060288559695145e+00 0 0 0
94 1 8.4470248213277834e+00 1.1303929922702288e+01 9.4655533516194730e+00 0 0 0
919 1 9.8852404584131914e-01 1.5402722877346124e+00 5.9346792162282220e+00 0 1 0
526 1 1.7523997413667459e+01 1.4601491215753763e+01 3.0838553410146798e+00 0 0 0
933 2 1.5771351316086747e+01 1.4175591875601992e+01 6.6871142419633971e+00 0 0 0
232 1 1.3090437752931180e+01 1.1024687899280574e+01 7.8534469871947552e+00 0 0 -1
320 2 4.6479637957554933e+00 1.6723120399452529e+01 2.7080421417119864e+00 0 -1 1
230 2 1.6572433766263932e+00 1.3410960334281119e+01 4.1602242937930978e+00 0 0 0
1823 2 1.8642624643472949e+01 1.2356153092865689e+01 1.4001926936963911e+00 0 0 1
1776 2 3.6419734492019011e+00 1.1290002515773034e+00 4.1797612216066424e+00 0 1 1
936 2 1.1128961310863481e+01 1.0655615098986699e+01 1.4702103392417729e+00 0 1 1
1085 2 2.0659286902303307e+00 8.7770975664307844e+00 6.9523925172273362e+00 0 0 0
715 1 1.4622395885585547e+01 2.2477588970599784e+00 2.7378094769817709e+00 0 0 1
478 1 1.6505171261682218e+01 2.2541826638540741e-01 1.7361019223004530e+00 0 1 -1
666 2 1.2572185480698681e+00 6.6242180237868391e+00 5.9125317948548597e+00 0 0 0
1374 2 8.2274188662275574e+00 3.4273763566118824e+00 2.0351736376433078e+00 0 0 1
518 2 1.9381732697254272e+01 1.5678504975951833e+01 7.8212549272202061e+00 0 0 0
893 2 3.1798322219316848e+00 4.3786880280087068e+00 5.9797449717841431e+00 0 0 0
263 2 1.1482743698065788e+01 1.5841070480602435e+01 1.7194024329257735e+00 0 0 0
19 1 1.2417861934556902e+00 7.8445197173529744e+00 4.6561950110066181e+00 0 0 0
106 1 1.7913776122165668e+01 1.1081007352092545e+01 9.3383627398567093e+00 0 0 0
1568 2 3.7000388529890067e+00 1.8759549017892731e+01 3.3388689371879408e+00 0 -1 1
31 1 1.8837025435811996e+00 1.6507508100034130e+01 1.1708178438954864e+00 0 -1 0
1608 2 9.8286926372742940e+00 9.0988336053068579e+00 5.8535902869344154e+00 0 -1 0
970 1 1.3556522842133349e+01 1.2739785195552193e+01 4.7776521055430274e+00 0 0 0
675 2 5.8625387771279005e+00 9.1522951635729619e+00 8.6820114553801275e+00 0 -1 0
489 2 1.4111253978536865e+01 8.0136630212113005e+00 6.3489141059927166e+00 0 1 -1
276 2 9.8621252804114778e+00 7.6449039841795017e+00 2.2318611284017872e-01 0 0 0
1397 2 1.9697378207518536e+01 9.5686139862617079e+00 6.7174984165417362e+00 0 0 1
234 2 1.3492691559646694e+01 1.1902340159495227e+01 8.0903829054413414e+00 0 0 -1
441 2 1.4767206975872149e+00 3.4000570515597981e+00 3.2853221858485904e-01 0 1 0
876 2 7.5191845042233467e+00 9.3430427872368931e+00 5.1670419512138919e+00 0 0 0
436 1 6.6542644420796169e+00 6.2735247932666374e+00 1.4086327674332424e+00 0 0 0
76 1 1.9337394376142925e+01 1.0501579372124796e+00 4.4749354285593181e+00 0 0 0
1126 1 1.0067130912634356e+01 3.6532158085065252e+00 7.7641105499226066e+00 0 1 1
673 1 5.6499136425704233e+00 8.3071436951710851e+00 9.2663366895323449e+00 0 -1 0
702 2 8.5133748297860308e+00 1.0632971901828606e+01 2.6684428049925435e+00 0 0 -1
964 1 1.2119277930862431e+01 1.8281496007200169e+00 9.6447404302745614e+00 0 1 0
536 2 1.6305453071962475e+01 1.7461624785159721e+01 6.2871812665696298e+00 0 0 0
914 2 1.7423992552825290e+01 1.7997094381292143e+01 4.4988054843525003e+00 0 0 0
223 1 4.4496734076621864e+00 2.4830221288704362e+00 3.5138816468372247e+00 0 1 0
903 2 1.2301983534703815e+01 4.2956536355413739e+00 5.9233254738588963e+00 0 1 0
717 2 1.4815549092533669e+01 3.0586285925088466e+00 2.2620059188350159e+00 0 0 1
257 2 5.1084058157959591e+00 9.1824240503411509e+00 2.0190729614627632e+00 0 0 1
738 2 1.6654994833024436e+01 8.2769282259916057e+00 3.4557985131668185e+00 0 0 0
682 1 3.3437790121269582e+00 1.3974419717571827e+01 3.4802097151639249e+00 0 -1 0
1370 2 1.0302884296231900e+01 7.2280515025426766e+00 2.5375515223741072e+00 0 0 1
1783 1 4.5719420192501321e+00 4.9972936560684147e+00 7.0181608270001821e+00 0 1 0
51 2 1.1366957185210508e+01 1.8643926907218773e+01 2.7181998781075811e+00 0 -1 0
482 2 1.1021418705926456e+01 1.4445533527875606e+01 6.0393676370551290e+00 0 0 0
687 2 7.8959426758436724e+00 1.8377783487090422e+01 5.4489872419517473e+00 0 0 0
737 2 1.8041595563817658e+01 7.6522538246374641e+00 3.7456039543805875e+00 0 0 0
1398 2 1.9256578200309566e+01 1.1021864716640033e+01 6.3946743941707069e+00 0 -1 1
901 1 1.2039427441110474e+01 4.4193420571805229e+00 5.0065126527936563e+00 0 1 0
1541 2 3.7894040575627805e+00 3.1978206025993692e+00 7.2397534942716890e-01 0 0 1
1127 2 9.9761448138170934e+00 2.7028962454531182e+00 7.9450501892870626e+00 0 1 1
1369 1 1.1101880984814533e+01 6.8919301219221438e+00 3.0358531293414948e+00 0 0 1
1747 1 9.5192869353752863e-01 1.0560560239157825e+01 5.9827144053833905e+00 0 0 1
1793 2 1.1263589418541953e+01 1.8275033000542177e+01 9.2640025614137365e+00 0 -1 1
871 1 4.3758771003399772e+00 1.2226867537592195e+01 1.8621536333203490e+00 0 0 0
272 2 1.3402472973287166e+01 7.7679819274108182e+00 7.4984800442122557e-01 0 0 1
671 2 7.4755201744337088e+00 1.5663863224029612e+01 1.3803724162631348e+00 0 -1 0
306 2 1.2765838573409161e+01 1.6831537593400832e+01 9.6763618236510567e+00 0 0 1
749 2 1.7602420310331318e+01 5.4169406117701939e+00 1.1139737435029855e+00 0 0 1
1122 2 1.1762461815736209e+01 1.5118657148362400e+01 4.0841621978972640e+00 0 0 0
218 2 1.3403883100651495e+01 9.6748696456257761e+00 8.8049754689631303e+00 0 0 0
237 2 1.0783108257722029e+01 1.3586120883849407e+01 2.7461350010393786e+00 0 0 0
1544 2 2.2828151539414754e+00 1.3211868315994659e+01 6.8018984082693024e+00 0 0 0
931 1 1.5619297569697924e+01 1.4900689567786895e+01 7.4042056477680918e+00 0 0 0
293 2 1.8037769034613696e+01 1.0815130801946479e+01 4.7519111301587706e+00 0 -1 -1
217 1 1.3497597191484912e+01 8.7773144517918400e+00 9.2732824210515403e+00 0 0 -1
1741 1 4.1443528817563227e+00 1.9450402070131594e+00 9.8086485893536324e+00 0 1 0
103 1 1.4373598627795666e+01 4.8516187490014371e+00 2.0209328077080091e+00 0 0 0
1125 2 1.8475987086041922e+01 7.1739773510221405e-01 6.1950330483297567e+00 0 1 0
488 2 1.3508372850492513e+01 7.9109540381474401e+00 7.8310412853090403e+00 0 1 -1
1824 2 1.7680057587640423e+01 1.3516459836068236e+01 1.7781858595076612e+00 0 0 1
1161 2 1.2911614682816108e+01 1.6607596269483675e+01 6.6178974051982289e+00 0 0 0
77 2 1.9200765586064097e+01 1.6514608411273617e+00 3.7414773945156488e+00 0 0 0
690 2 1.5177935202078007e+01 1.6011842930918430e+01 3.9310761939423249e+00 0 -1 0
959 2 1.5701874181494027e+01 4.8028550575068749e+00 7.4254183507686777e+00 0 1 0
59 2 5.5056722840509531e-01 5.8214193488417409e+00 7.7844907144027369e+00 0 0 -1
700 1 9.1341859468436084e+00 9.9449060479299352e+00 3.0082618805556618e+00 0 0 -1
466 1 1.3535107234168104e+01 1.9790389966217511e+01 7.7278545196778525e+00 0 0 0
1554 2 9.7656315390173791e+00 4.8307625623767709e+00 6.2970344835416574e+00 0 0 1
231 2 1.0719036139852431e+00 1.2077066162126442e+01 4.7320426843443064e+00 0 0 0
282 2 5.9646796587556512e+00 2.2063653298783450e+00 7.0253337614283833e+00 0 0 0
1153 1 1.8837262936611605e+01 1.2541878052663135e+01 6.8780319940100760e+00 0 1 0
12 2 5.7993669360719491e-01 1.8766081204242806e+01 2.2126250370580101e+00 0 -1 0
688 1 1.4475038535196596e+01 1.6124537762016701e+01 3.2765802460728732e+00 0 -1 0
694 1 1.4147312061607055e+01 1.3125003094857000e+01 8.8420174481741736e+00 0 -1 0
269 2 1.9040916225987875e+01 1.3541547435549351e+01 5.4038600209221901e+00 0 0 0
1558 1 1.3806257998408398e+01 1.9199864752257412e+01 5.1373273280297447e+00 0 0 1
1764 2 3.5738721591187583e-01 6.1530248503796185e+00 1.1940497663695799e+00 0 1 0
932 2 1.6495966208811616e+01 1.5023769690519350e+01 7.8156012073136445e+00 0 0 0
1535 2 1.1405245428805909e+01 7.8966680926967250e+00 4.5325550357708249e+00 0 -1 0
1593 2 1.6162774493503715e+01 1.0693551093298050e+01 2.9795392177208986e+00 0 0 1
953 2 1.4560729974048259e+01 1.1920574174465665e+01 2.1136401332781936e+00 0 0 1
1578 2 1.8618647352366448e+01 7.4718346120579371e+00 5.9305977767324700e+00 0 0 1
934 1 1.1910074395389243e+01 1.0633611199586458e+01 2.0383099080332183e+00 0 1 1
1321 1 3.4667952959327129e+00 1.4121338767303714e+01 6.0973243134990431e+00 0 0 1
1111 1 6.0635602647770677e+00 1.4015262317425616e+01 9.1239153251147691e+00 0 0 0
1817 2 1.2982944652968692e+01 1.2707067790188644e+00 2.5741999679482896e-01 0 2 1
517 1 1.8681222762057292e+01 1.5882177370333595e+01 7.0675488832056201e+00 0 0 0
108 2 1.7631166128684960e+01 1.1076285172259858e+01 8.3824052419474011e+00 0 0 1
1373 2 6.7992567501554673e+00 2.9687881187615974e+00 1.6154037776530059e+00 0 0 1
96 2 9.1276507732840173e+00 1.1442625857591940e+01 8.7589611602391795e+00 0 0 0
1536 2 1.2184134998436926e+01 7.7281162433249468e+00 5.8382010178225388e+00 0 -1 0
292 1 1.7102059581900274e+01 1.0847525963654906e+01 4.4911758135286082e+00 0 -1 -1
958 1 1.6186687616443223e+01 5.6775367703605690e+00 7.4172303102263362e+00 0 1 0
490 1 7.1667686736078009e+00 4.1580449887730087e+00 4.8151563789202383e+00 0 1 0
452 2 2.7041896358922770e+00 9.3804377456639010e+00 9.2499720751641963e+00 0 0 -1
1542 2 3.3182181600250868e+00 3.0949051379263008e+00 2.1799404308745971e+00 0 0 1
875 2 5.9481930027682175e+00 8.9268867558385843e+00 5.5151299535701988e+00 0 0 0
654 2 2.7415699568504088e+00 6.5128471947380104e+00 8.7385436705949218e+00 0 0 0
1301 2 5.6381175084214155e+00 1.0881285979586790e+01 7.5098222551575162e+00 0 0 0
1805 2 9.0765514714088678e+00 1.5951704439218547e+01 3.2659011783596981e+00 0 0 1
894 2 2.4083972522041006e+00 4.0045901322292563e+00 4.6901646409623581e+00 0 0 0
1309 1 1.7285318998578202e+01 1.4611881293880474e+01 9.6099835214962450e+00 0 0 0
1377 2 1.0648818593192070e+01 1.7064728570858072e+01 5.6351321991597683e+00 0 0 1
872 2 4.8571354920617011e+00 1.1417084860810006e+01 2.0750560136056260e+00 0 0 0
1784 2 5.0089522931892079e+00 5.5413189692522584e+00 6.3385270824851956e+00 0 1 0
1180 1 1.8352662975177260e+01 2.4054637977167684e-01 9.5306812098549383e+00 0 1 0
1801 1 1.2722429333981340e+01 4.1837649031618289e+00 7.6803499602229222e+00 0 1 1
458 2 1.7777808006750579e+01 9.5748335229335773e+00 9.7634483689124032e+00 0 1 0
252 2 6.6568009110749990e+00 1.2604008634719236e+01 5.2664058487160199e+00 0 -1 0
519 2 1.8922263488479082e+01 1.6795199069094529e+01 6.7968812527314073e+00 0 0 0
281 2 6.9322867376351933e+00 3.2058381584018880e+00 6.2497419680710466e+00 0 0 0
965 2 1.2484403998275484e+01 1.2524219532320058e+00 8.8701377990794139e+00 0 1 0
1777 1 9.4661339031505722e+00 1.2775575040484042e+00 8.1334252709356996e+00 0 1 0
66 2 1.6557367590993426e+01 8.5542572721664776e+00 7.2207673693788648e+00 0 0 -1
1359 2 9.1749903541669244e+00 1.5785750277804400e+01 9.2430198111358379e+00 0 0 0
1833 2 8.4017513033072806e+00 1.7172498016914506e+01 7.2674245711559147e+00 0 -1 0
314 2 9.6077037853731824e+00 1.3277962039135556e+01 4.8116970780313100e+00 0 0 0
10 1 2.6790327128606772e-01 1.9498934494755918e+01 1.6405635809685064e+00 0 -1 0
904 1 1.4933928586784706e+01 5.4501775406423087e+00 4.9664405635256736e+00 0 0 0
1607 2 9.1766034224022430e+00 1.0209945419966211e+01 6.6118312778327768e+00 0 -1 0
667 1 7.0925050693392067e-01 1.7408179992630235e+01 4.1631251137124279e+00 0 0 0
1545 2 9.4299496882427269e-01 1.2983938695046421e+01 7.7294601502720983e+00 1 0 0
1580 2 -1.2123719754870657e-01 6.8040221733158612e-01 8.7843318182682655e+00 0 0 0
1779 2 8.5157034276925749e+00 1.1885951242827548e+00 8.3603116286464303e+00 0 1 0
48 2 3.8958277505068502e+00 1.1994671076606698e+01 6.4021765419534855e+00 0 -1 0
699 2 1.3444741608065673e+01 1.7859341776071542e+01 2.5982068387789523e+00 0 0 1
1136 2 2.5870992764123848e+00 1.0130946657167176e+01 4.5760424662580812e+00 0 1 0
1775 2 2.3690376095719166e+00 7.0615453850084942e-01 5.0025678068099628e+00 0 1 1
942 2 1.5409064021355730e+01 1.9367857182460730e+00 4.3076011127236411e+00 0 1 1
1584 2 1.2192645679287455e+01 1.5019970161245341e+01 7.9404969814249817e+00 0 0 0
46 1 4.2657613224279078e+00 1.1141491322955137e+01 6.3968107779682226e+00 0 -1 0
89 2 1.2500669854769386e+01 9.7159175918988332e+00 5.0365504436217217e+00 0 0 0
1123 1 1.7735743114125949e+01 1.1058039607457859e+00 6.6908648624045970e+00 0 1 0
450 2 1.0130262739633148e+01 9.1891830806421915e-01 6.3533664912528947e+00 0 1 0
697 1 1.3057156202355346e+01 1.8743655125135497e+01 2.7074988204119399e+00 0 0 1
1774 1 3.1576795643952327e+00 3.4089319723508016e-01 4.5547281167635232e+00 0 1 1
1534 1 1.1532579139252965e+01 8.2876428994086542e+00 5.4160563290438075e+00 0 -1 0
505 1 7.5019025074452745e+00 3.8104489281783445e+00 9.0284683404859010e+00 0 0 0
444 2 5.2419047911162755e+00 6.6742547133392520e+00 4.4892595218663045e+00 0 1 0
952 1 1.3878685769528776e+01 1.2619883758762239e+01 1.9343150165716785e+00 0 0 1
1822 1 1.7709941719549413e+01 1.2681969070737180e+01 1.1872667544271307e+00 0 0 1
897 2 8.0993849934950735e+00 8.0812754795183963e+00 6.7988912786466829e+00 1 0 0
1372 1 7.2777481873962655e+00 3.6249597301441221e+00 2.1402263133344976e+00 0 0 1
464 2 1.0384418226751301e+01 4.0847193319623685e+00 9.9297727900914856e-01 0 0 -1
972 2 1.3527682789170518e+01 1.2891623366651716e+01 3.8245352327098328e+00 0 0 0
670 1 7.6789597659813991e+00 1.6028023140392495e+01 2.2613686472023424e+00 0 -1 0
938 2 3.2324024323258302e+00 7.7536988476647490e+00 1.8523599477766155e+00 0 0 0
50 2 9.9826765804474284e+00 1.9321870686605074e+01 2.4219150995971828e+00 0 -1 0
1382 2 1.7049399521067929e+01 5.1823045204406117e+00 9.8518487011692848e+00 0 0 0
21 2 3.1271431928838422e-01 7.6198444287719322e+00 4.5952928086257510e+00 0 0 0
1748 2 9.5849072408855263e-02 1.0893853594467281e+01 5.6584732191888385e+00 0 -1 1
1157 2 1.0260135147549253e+01 1.2088320505565466e+01 6.8995983297907388e+00 0 0 0
60 2 3.8108164639191389e-01 5.0471223796431630e+00 9.2011584449057739e+00 0 0 -1
65 2 1.6373490843363442e+01 9.3096459968907848e+00 5.9669823075448098e+00 0 0 -1
456 2 4.7573288786176047e+00 1.8307424964722326e+01 7.5742701325915771e+00 0 0 0
527 2 1.8293487447126292e+01 1.4677658689733338e+01 3.6368959677903652e+00 0 0 0
1163 2 1.2893212647783923e+01 2.0947353343961486e+00 3.1860036311240063e+00 0 1 1
294 2 1.6863060327103796e+01 1.1623235451396392e+01 5.0135653338866000e+00 0 -1 -1
1773 2 1.4582906316386783e+01 7.0438401562809521e+00 4.3179161692877805e+00 0 0 0
696 2 1.3407237095961706e+01 1.3712379252511436e+01 9.1866619145323103e+00 0 -1 0
1563 2 4.2829308431456985e+00 1.7070140787048766e+00 8.0802782930089521e+00 0 1 0
315 2 8.6792351203878564e+00 1.3652309935692479e+01 6.1497276959560763e+00 0 0 0
943 1 1.5293229510943307e+01 1.7429565831888979e+01 1.1110243652795599e+00 0 0 1
319 1 5.0594331096206870e+00 1.5769481096887636e+01 2.8707608286852548e+00 0 -1 1
1357 1 9.7541272780223771e+00 1.5244752318956170e+01 9.8356668358773227e+00 0 0 0
1619 2 1.5224054387680905e+01 1.8896766407184792e+01 7.5819297877214504e+00 0 -1 0