LAMMPS data file via write_data, version 15 Apr 2020, timestep = 200000

972 atoms
2 atom types

1.5165550045370146e-01 1.9839397499546561e+01 xlo xhi
8.5064415821337391e-02 1.9905988584180616e+01 ylo yhi
3.0239684241411169e-01 2.0498375157586473e+01 zlo zhi
-2.3901242854826255e-02 -3.6987251869032678e-01 1.4615502465779792e-01 xy xz yz

Masses

1 16
2 2

Atoms # atomic

4 1 4.2644180555934899e+00 1.6834634624956224e+00 3.4865826869419569e+00 0 0 0
5 2 4.2606148663851675e+00 2.6983307548006228e+00 3.5786730180565067e+00 0 0 0
6 2 3.4463032096866053e+00 1.3663052545153720e+00 3.9113830259108457e+00 0 0 0
7 1 5.8424629174962623e+00 4.9884254700073525e+00 5.7552245686994867e+00 0 0 0
8 2 6.7052089219426616e+00 4.7227314745771807e+00 5.3773984562719823e+00 0 0 0
9 2 5.1519960328097341e+00 4.7844979417539326e+00 5.0858366461508213e+00 0 0 0
10 1 1.3306662992804827e+00 4.3689350556191755e+00 4.0389524274095709e+00 0 0 0
247 1 1.1441803430992943e+00 1.5264845190736455e+01 2.3355653582591480e+00 0 0 0
12 2 1.0705979350591930e+00 4.9319646059028912e+00 3.2475254577087189e+00 0 0 0
13 1 4.5389752901335862e+00 6.1794714747238828e+00 1.8086004603969341e+00 0 0 0
14 2 4.2820630496279195e+00 7.0125083387856151e+00 2.3526809353758806e+00 0 0 0
15 2 3.9654234819589247e+00 6.0663972931218257e+00 1.0452472948158245e+00 0 0 0
16 1 3.9803090151539990e+00 4.3278849870924478e+00 3.8872866973276996e+00 0 0 0
17 2 4.2756046669160739e+00 4.8853771364836849e+00 3.1306754385935203e+00 0 0 0
18 2 3.0127802274083408e+00 4.5488951290404618e+00 4.0089200943190395e+00 0 0 0
150 2 9.7441884152616556e+00 7.9249747988681660e+00 3.7143703732277302e+00 0 0 0
20 2 5.9622166005182731e-01 6.9304545197036669e+00 2.3253253247381145e+00 0 0 0
22 1 1.8849339868858650e+00 7.1239544204548622e-01 5.1468143089862544e+00 0 0 0
23 2 9.6448371042031789e-01 8.9554102844875949e-01 4.8545938967396109e+00 0 0 0
24 2 2.0973185638836478e+00 1.4982910938950214e+00 5.6562726846859936e+00 0 0 0
25 1 2.6136941095108996e+00 5.3382140384617225e+00 6.7889749052503134e+00 0 0 0
26 2 2.4171566008999594e+00 6.0376476684249010e+00 6.1253177973152306e+00 0 0 0
27 2 3.4053999521458111e+00 5.6503107697664916e+00 7.3824356321039559e+00 0 0 0
28 1 6.0138738615930167e+00 1.1882844140517868e+00 5.5431056449435205e+00 0 0 0
29 2 5.4113137700589258e+00 1.4534256205656155e+00 4.8223312516831420e+00 0 0 0
30 2 5.9271123049987837e+00 2.1844106971716701e-01 5.6126813524308865e+00 0 1 0
31 1 1.0771106050292469e+00 2.1362941604336951e+00 2.3086960339022466e+00 0 0 0
557 2 3.6548665274209431e+00 1.6593338515592109e+01 1.0267734908282302e+01 0 0 0
33 2 1.0166375945185320e+00 2.7922191345257135e+00 3.0223586205929163e+00 0 0 0
675 2 1.6811555467155082e+00 5.6876855212403514e+00 8.6647207710116736e-01 0 0 0
35 2 6.2243480748647224e+00 2.2486547230139169e+00 1.3134130559738286e+00 0 0 0
46 1 7.8394253089255672e+00 4.2873456548976963e+00 3.9087494387468373e+00 0 0 0
47 2 8.7896661432211403e+00 4.1922381117627348e+00 3.8260232457639169e+00 0 0 0
48 2 7.6280041939993470e+00 5.1378931520342288e+00 3.2748419966092910e+00 0 0 0
55 1 7.3305597983769726e+00 6.1955189920549030e+00 1.8492687817722324e+00 0 0 0
56 2 7.5001772062563461e+00 7.1081238906684350e+00 2.0356283232443575e+00 0 0 0
57 2 6.3497966299367059e+00 6.1568202777181815e+00 1.7422484420928155e+00 0 0 0
58 1 8.8249720489259111e+00 8.2124331443795096e-01 5.2371918525291630e+00 0 0 0
59 2 9.2004766345792515e+00 9.2223239102722987e-01 4.3426294390267417e+00 0 0 0
60 2 7.8399029077912017e+00 1.0978690965149212e+00 5.1745267605304726e+00 0 0 0
61 1 8.8161907381655968e+00 5.5390046194620366e+00 6.6313028826043849e+00 0 0 0
32 2 2.9015411120893575e-01 2.2019370367256550e+00 1.7341351877048112e+00 0 0 0
63 2 8.2413867463004831e+00 5.7375867329017911e+00 7.3924005238390835e+00 0 0 0
67 1 7.8981228563829191e+00 2.1669269578215773e+00 2.3491104864020413e+00 0 0 0
68 2 7.8052917372032908e+00 2.9898430897616350e+00 2.9340952640186408e+00 0 0 0
69 2 8.4845416712194268e+00 2.3960232347453405e+00 1.6220700154386858e+00 0 0 0
437 2 3.7150821917448882e+00 8.8440655491071229e+00 9.9783153497382457e+00 0 0 0
609 2 7.3609983561068431e+00 1.6162734312348221e+01 9.8097208992740548e+00 0 0 0
250 1 5.3860571677497209e+00 1.5743912246429540e+01 4.7760756488840350e-01 0 0 0
112 1 4.2008350197564557e+00 8.3761947813544175e+00 3.4957933925501252e+00 0 0 0
113 2 4.8094453060039299e+00 8.2863842463500905e+00 4.2188849579032182e+00 0 0 0
114 2 4.0252041817625468e+00 9.3325163464557566e+00 3.5393585451403498e+00 0 0 0
115 1 5.8458585065299289e+00 1.1183677369195250e+01 5.7678402617576179e+00 0 0 0
116 2 5.7308472336276797e+00 1.2101575550235010e+01 6.0030291152880588e+00 0 0 0
117 2 5.4658069848217519e+00 1.0674713165933776e+01 6.5678758873583982e+00 0 0 0
118 1 1.1885484877102419e+00 1.0845948960882932e+01 4.2209082294911724e+00 0 0 0
119 2 6.2441764391055798e-01 1.0881985483618191e+01 5.0215826036351263e+00 0 0 0
120 2 2.1403466231402271e+00 1.0966804914838519e+01 4.3991539377436997e+00 0 0 0
121 1 4.5437856047903349e+00 1.2640602760485905e+01 1.8713352935602146e+00 0 0 0
122 2 5.5181921615404859e+00 1.2624964473348165e+01 1.6524921669759383e+00 0 0 0
123 2 4.1126449569278360e+00 1.2518259112248478e+01 9.6527798653504249e-01 0 0 0
124 1 3.7002318077389522e+00 1.1043775870282456e+01 3.9631363543059974e+00 0 0 0
125 2 3.9078037999488728e+00 1.1654758243724597e+01 3.2265643585371615e+00 0 0 0
126 2 4.3841145711892819e+00 1.1071083470278788e+01 4.6713719745254672e+00 0 0 0
127 1 8.0504254882759352e-01 1.2667798546324693e+01 2.2485989155873622e+00 0 0 0
128 2 1.5312940555433561e+00 1.2443319300548598e+01 1.6701149450684454e+00 0 0 0
129 2 7.9637397194226534e-01 1.2021575527047247e+01 2.9572774356229488e+00 0 0 0
130 1 1.9595000155300211e+00 7.6381834535352420e+00 5.0984914927525669e+00 0 0 0
131 2 2.5790953772851357e+00 7.7557827831720063e+00 4.3226204331251354e+00 0 0 0
132 2 1.9674915978191059e+00 8.4925823033616599e+00 5.7161159186333688e+00 0 0 0
133 1 2.6068166058682176e+00 1.2235608696524416e+01 7.0375882770637608e+00 0 0 0
134 2 1.8688754628098598e+00 1.2466300752596247e+01 7.7250357980257789e+00 0 0 0
135 2 2.5803442303776678e+00 1.2967123732582381e+01 6.3556261744873499e+00 0 0 0
136 1 5.7397423873944051e+00 7.7317712805265586e+00 5.6968912224383566e+00 0 0 0
137 2 5.6817036214718710e+00 6.7143806465613123e+00 5.7031913759383093e+00 0 0 0
138 2 6.6597458722560798e+00 7.8859307590504963e+00 5.4186421907429017e+00 0 0 0
139 1 8.5960703204966882e-01 8.8302205291105018e+00 2.2377096297505892e+00 0 0 0
140 2 8.2538573562624740e-01 9.5828196113685991e+00 2.8478287690770117e+00 0 0 0
34 1 5.5982611406757510e+00 2.3803843899867210e+00 5.6143575593417050e-01 0 0 0
147 2 8.4663819763967609e+00 8.9964421379185726e+00 1.2504239051850208e+00 0 0 0
711 2 8.3423985888133014e+00 5.4772882369381453e+00 8.5672664351532524e-01 0 0 0
154 1 7.7226793099673037e+00 1.0855625767520683e+01 4.0193482545047861e+00 0 0 0
155 2 7.1924465680857130e+00 1.1042478927178548e+01 4.8286842893208766e+00 0 0 0
156 2 8.6670902750544023e+00 1.0835151669157112e+01 4.1831814018226066e+00 0 0 0
163 1 7.0649991489191990e+00 1.2767224732130405e+01 1.9711462776365507e+00 0 0 0
164 2 7.1665210368374215e+00 1.2264866619118104e+01 2.8138525512032415e+00 0 0 0
165 2 7.8050015769630505e+00 1.2416186780643857e+01 1.4412403739975090e+00 0 0 0
166 1 8.4243388899527609e+00 7.7297276592781277e+00 5.0484755697181551e+00 0 0 0
167 2 8.6452134905452080e+00 8.4628180404583677e+00 5.6651120236799954e+00 0 0 0
168 2 8.5042608479580348e+00 6.9229228802769187e+00 5.6276212325248345e+00 0 0 0
169 1 8.9162416410773861e+00 1.2140942090110260e+01 7.2445993624766674e+00 0 0 0
171 2 8.8493907157350460e+00 1.2703656880373018e+01 6.3981127391892443e+00 0 0 0
175 1 7.2606280484689467e+00 8.7983241807522230e+00 2.4727910458888065e+00 0 0 0
176 2 7.5128245604880330e+00 9.3923712243463857e+00 3.2384260990880076e+00 0 0 0
177 2 6.3906560738184170e+00 9.1540933034110807e+00 2.1434335883280662e+00 0 0 0
450 2 4.2181252216804186e+00 1.1443339467240571e+01 9.7568856255831573e+00 0 0 0
3 2 2.2078718913846185e+00 2.4890910682459841e+00 1.2550107554706385e+00 0 0 0
544 1 3.8731813797509083e+00 1.4749722032945190e+01 9.9886322115263528e+00 0 0 0
558 2 4.0471615795859961e+00 1.8138668237777118e+01 9.8049821665928523e+00 0 0 0
891 2 3.6509780696943501e+00 1.9074810316376912e+01 6.4549657835332042e-01 0 0 0
220 1 4.3826313870702851e+00 1.4604571622567121e+01 3.5314298157092772e+00 0 0 0
221 2 4.5014151265943241e+00 1.5517915599829351e+01 3.3497888389419619e+00 0 0 0
222 2 4.6845210633120713e+00 1.4157506979551862e+01 2.6704249152227413e+00 0 0 0
223 1 5.7855407960314622e+00 1.8251645303108909e+01 5.5359010597244298e+00 0 0 0
224 2 6.4488108778278885e+00 1.7702261310480452e+01 4.9840575963720442e+00 0 0 0
225 2 5.5718686732181411e+00 1.7617348253681904e+01 6.2668902310809207e+00 0 0 0
226 1 1.6524821199530773e+00 1.7228521749117846e+01 4.0959683917694854e+00 0 0 0
227 2 1.3800688104735015e+00 1.7986225366820030e+01 3.4898032565749002e+00 0 0 0
228 2 1.4687698239084999e+00 1.6435988101315395e+01 3.5600459546955134e+00 0 0 0
229 1 4.8397758988725821e+00 1.9497299279948933e+01 1.6374651166520919e+00 0 0 0
230 2 4.5456714716767834e+00 1.8797812542653816e+01 2.2414051024490753e+00 0 0 0
231 2 4.5694273457199621e+00 4.8385441256891015e-01 2.1742941519450953e+00 0 0 0
232 1 4.2156940147640025e+00 1.7492162410463067e+01 3.4644845004096760e+00 0 0 0
233 2 3.2717991509916478e+00 1.7392538248045653e+01 3.6852579879895302e+00 0 0 0
234 2 4.5514889741899509e+00 1.7879096467118323e+01 4.2841167091041541e+00 0 0 0
235 1 8.7320928408783693e-01 1.9252166198668945e+01 2.1972558864702361e+00 0 0 0
236 2 9.0912827994188761e-01 3.9767154511330277e-01 2.0388596385826299e+00 0 0 0
237 2 1.5889121104391248e+00 1.8920922574352645e+01 1.6591771676983642e+00 0 0 0
238 1 2.2467248336829777e+00 1.4002516031240535e+01 5.0002695153531436e+00 0 0 0
239 2 2.8564889018143438e+00 1.4168112571573188e+01 4.2338440865372426e+00 0 0 0
240 2 1.3105170596662676e+00 1.4037151855859406e+01 4.7520438180474667e+00 0 0 0
241 1 2.5648004380672464e+00 1.8677229043104951e+01 6.8939425929374325e+00 0 0 0
242 2 2.2823645952110660e+00 1.9148020789536623e+01 6.0565643055239979e+00 0 0 0
243 2 2.2476527736955001e+00 1.7777253114760860e+01 6.8252206458402123e+00 0 0 0
244 1 5.8364361876452735e+00 1.3821550632735066e+01 5.5422881349010495e+00 0 0 0
245 2 5.3565907428015409e+00 1.4397358754486627e+01 6.1827861193744145e+00 0 0 0
246 2 5.3908389180325287e+00 1.4069823990959591e+01 4.6670729373773581e+00 0 0 0
145 1 8.9044891490785449e+00 9.1702616690972203e+00 3.7662492403929959e-01 0 0 0
248 2 9.9157934204326004e-01 1.4292300786863184e+01 2.3512842074433049e+00 0 0 0
249 2 1.8761962293188661e+00 1.5376750676389985e+01 1.7039332583218705e+00 0 0 0
251 2 6.0355424833897198e+00 1.5497179587594484e+01 1.1599402703493507e+00 0 0 0
19 1 4.0441154235541993e-01 6.0630427739622954e+00 1.9167325970301030e+00 0 0 0
262 1 7.7010843482863311e+00 1.7458890245945341e+01 3.9588290137384590e+00 0 0 0
263 2 8.6917961142384641e+00 1.7356241818825673e+01 4.0362601387248969e+00 0 0 0
264 2 7.6521326742720426e+00 1.8216207138330624e+01 3.3005381206536257e+00 0 0 0
271 1 7.4351586033022166e+00 1.9457031758552546e+01 2.4629873572268335e+00 0 0 0
272 2 7.5301499351902716e+00 6.8888548674258965e-01 2.5703442745172236e+00 0 0 0
273 2 6.4986558442213198e+00 1.9402784794775570e+01 2.1642234355077532e+00 0 0 0
274 1 8.6759039830841047e+00 1.3976743241382678e+01 5.4084175715077727e+00 0 0 0
275 2 8.7507233356981491e+00 1.4845272937295213e+01 5.8357949185901328e+00 0 0 0
276 2 7.7621296908778943e+00 1.3823386532517889e+01 5.2270569464358729e+00 0 0 0
277 1 9.3053028742661006e+00 1.8753661932301988e+01 6.8549277008311531e+00 0 0 0
278 2 9.2953149352083706e+00 1.9268419238105714e+01 5.9896850056886990e+00 0 0 0
279 2 8.5066703201240053e+00 1.9083344338495102e+01 7.3589338908906772e+00 0 0 0
283 1 7.2852951264667452e+00 1.5490053332705346e+01 2.3600671077122990e+00 0 0 0
284 2 7.5938814907139296e+00 1.6137123611709143e+01 3.0567175580491943e+00 0 0 0
285 2 7.4438979356999768e+00 1.4574785433343399e+01 2.6057957302949575e+00 0 0 0
11 2 6.4744813093510412e-01 4.6280944557972594e+00 4.6824394951863573e+00 0 0 0
325 1 2.7604903672628662e+00 2.5597035088269706e+00 7.1388989513493684e+00 0 0 0
326 2 2.5331272921571264e+00 3.4713706520913759e+00 6.9087240848767051e+00 0 0 0
327 2 3.6868165673952560e+00 2.5545985568160967e+00 7.2997601271798223e+00 0 0 0
329 2 4.1229960274384583e+00 6.6792296263058171e-01 9.3177251801396768e+00 0 0 0
337 1 4.6081940777725414e+00 5.9026315808366849e+00 8.5106425020408274e+00 0 0 0
338 2 4.2764517870417773e+00 5.2144498532335746e+00 9.1064106904601303e+00 0 0 0
339 2 4.2967851058710247e+00 6.7375137749086997e+00 8.9331995538489988e+00 0 0 0
170 2 9.6697369770968464e+00 1.2542190056466113e+01 7.6965906927825856e+00 0 0 0
344 2 9.1251291919355337e-01 5.4993193707114720e+00 9.5995813830700811e+00 0 0 0
345 2 1.2575530836672193e+00 5.7675358501063672e+00 8.0810685533367490e+00 0 0 0
355 1 7.7575246284565069e-01 2.3011538039201422e+00 8.9829634709497572e+00 0 0 0
356 2 7.4992289886023411e-01 1.3444823074256682e+00 9.0585153702570604e+00 0 0 0
357 2 1.5879650684236224e+00 2.3326115290234841e+00 8.4936178624169258e+00 0 0 0
358 1 5.5725345500599772e+00 2.8319591519412195e+00 7.5542888611159924e+00 0 0 0
359 2 5.6120692464325064e+00 3.7810667954061876e+00 7.2449439735624637e+00 0 0 0
360 2 5.6664809266606815e+00 2.2950910872270800e+00 6.7043182125958829e+00 0 0 0
361 1 9.2045228286740315e+00 3.0486050326126559e+00 7.0192158908767022e+00 0 0 0
362 2 9.0575095847507949e+00 2.4032716732712003e+00 6.3004868681926842e+00 0 0 0
363 2 8.7192563032353849e+00 2.7048430464503697e+00 7.7964490520861300e+00 0 0 0
254 2 8.7203622277248893e+00 1.5507671475100590e+01 1.2257476000856333e+00 0 0 0
379 1 7.4039516275774240e+00 6.2321976587266743e+00 8.8291219353872581e+00 0 0 0
380 2 7.3933511611006502e+00 7.2367068386394742e+00 9.0280298286041312e+00 0 0 0
381 2 6.4603015226642304e+00 6.0563770331014073e+00 8.6137153590946056e+00 0 0 0
391 1 7.6404295742021198e+00 2.1029988934809372e+00 8.8925661597839909e+00 0 0 0
392 2 7.6398945862826659e+00 2.6207672721618818e+00 9.7576948544576290e+00 0 0 0
393 2 6.8119532487972743e+00 2.5256158520486816e+00 8.4594942996331941e+00 0 0 0
1 1 2.8484178810441105e+00 2.7025838633480181e+00 5.4283089478898283e-01 0 0 0
433 1 1.9670647037167222e+00 9.4339960136925693e+00 6.9688635874683627e+00 0 0 0
434 2 1.8595621434740572e+00 1.0404229512681924e+01 6.8230990676129606e+00 0 0 0
435 2 1.4694602009907205e+00 9.1653334645564399e+00 7.7809973099381109e+00 0 0 0
608 2 7.2051874556038920e+00 1.4676726684225811e+01 9.1924186732741955e+00 0 0 0
445 1 4.7806915538287633e+00 1.2625891933606182e+01 8.6671334362120582e+00 0 0 0
446 2 4.5067761755726909e+00 1.3554706845771682e+01 8.9636956030979729e+00 0 0 0
447 2 4.0470003219704846e+00 1.2279189741849406e+01 8.0306517247979805e+00 0 0 0
927 2 8.5770382850081734e+00 1.8837919762621191e+01 8.7299857559285265e-01 0 0 0
451 1 4.8781195361952834e-01 1.2512781603396823e+01 9.0778715898082343e+00 0 0 0
452 2 5.7271270980143307e-01 1.3502178155927584e+01 9.0489191750485869e+00 0 0 0
463 1 5.4410330788998018e-01 8.8312233292917064e+00 9.2379129047112425e+00 0 0 0
465 2 6.5353940546055656e-01 7.8477940444735692e+00 9.1946449570171627e+00 0 0 0
466 1 4.9966740676362020e+00 9.3285229462759851e+00 7.5715176334092229e+00 0 0 0
467 2 5.0698470555051225e+00 8.5405052961909078e+00 6.9991147107836209e+00 0 0 0
468 2 4.0409259617845485e+00 9.5265861232807616e+00 7.5846112006308077e+00 0 0 0
469 1 9.0029531514179411e+00 9.4156166345195711e+00 7.1771271854892165e+00 0 0 0
470 2 9.0046319354477173e+00 1.0386899935661127e+01 6.9185719446821086e+00 0 0 0
471 2 8.1851202448586076e+00 9.2554434993965184e+00 7.6715865281607964e+00 0 0 0
573 2 5.5781548624127753e-01 1.6020777804548445e+01 9.6931404271084460e+00 0 0 0
487 1 7.2959813540200589e+00 1.2878930370066435e+01 9.2048089104945685e+00 0 0 0
488 2 7.8004642519097303e+00 1.2539032050015569e+01 8.4377954913756401e+00 0 0 0
489 2 6.3875744874887213e+00 1.2707986339223430e+01 9.0199701817862863e+00 0 0 0
499 1 7.1931563466929331e+00 9.0865967387750999e+00 9.3042179651232786e+00 0 0 0
500 2 7.3874130931277300e+00 9.5270630073610256e+00 1.0172681227315833e+01 0 0 0
501 2 6.2543538601642137e+00 9.2253144714725508e+00 9.0310453062900002e+00 0 0 0
109 1 2.5537937936545680e+00 9.7035398112522824e+00 3.6109955305088198e-01 0 0 0
343 1 5.9916067121236449e-01 5.9564696385252081e+00 8.7875419916448791e+00 0 0 0
541 1 2.4403779229840152e+00 1.5898497852693623e+01 7.0936760053692822e+00 0 0 0
542 2 1.7584675206443661e+00 1.5421116052289387e+01 7.5832035544048590e+00 0 0 0
543 2 2.5914551234917274e+00 1.5318615731557465e+01 6.3601761592519983e+00 0 0 0
553 1 4.5727526254870678e+00 1.8944744348878039e+01 8.5664732567720083e+00 0 0 0
554 2 5.5156057772234401e+00 1.8810341946775353e+01 8.3505670361602693e+00 0 0 0
555 2 4.0002142151023943e+00 1.8711793600619423e+01 7.8016995364106378e+00 0 0 0
142 1 5.3970902690584106e+00 9.4374666893734283e+00 6.3648276303769946e-01 0 0 0
559 1 6.8306947389521377e-01 1.9508396295637077e+01 8.8450323578658363e+00 0 0 0
560 2 1.3640133401085530e+00 1.9374832730009956e+01 8.1040808574247123e+00 0 0 0
561 2 8.5051152778450922e-01 1.8820294058493737e+01 9.5050993352764568e+00 0 0 0
571 1 5.4755569150592431e-01 1.5160422480967247e+01 9.0832748570503110e+00 0 0 0
574 1 5.4219383139176207e+00 1.6007098497601405e+01 7.1845789288499056e+00 0 0 0
575 2 6.0581624048899680e+00 1.5913611328098780e+01 7.9364187583962513e+00 0 0 0
576 2 4.6213969620696611e+00 1.6128489655690423e+01 7.6914847700194180e+00 0 0 0
577 1 9.1311278888311715e+00 1.6071674359023838e+01 7.1686985148982600e+00 0 0 0
578 2 8.9918246543658675e+00 1.7045482414441885e+01 7.1026607097079246e+00 0 0 0
579 2 8.5709973246116693e+00 1.5859068386634492e+01 7.9754183117604818e+00 0 0 0
111 2 1.9719698556720742e+00 9.4578175042401043e+00 1.1022170217743472e+00 0 0 0
595 1 7.4197712215823648e+00 1.9332232840110066e+01 8.6273636361102053e+00 0 0 0
596 2 7.5651998907339726e+00 5.3039431024190775e-01 8.9305481999686336e+00 0 0 0
597 2 7.4887854821203677e+00 1.8781622340334351e+01 9.3683977999755719e+00 0 0 0
607 1 7.1793235153531532e+00 1.5639003002449517e+01 9.0010192758621095e+00 0 0 0
297 2 1.6168242312530873e-01 1.7038290573851242e+01 5.0296913313509322e+00 1 0 0
143 2 4.4202149273151354e+00 9.5351071453847815e+00 7.4848076897948257e-01 0 0 0
444 2 1.0964499513818466e+00 1.1688498409504758e+01 1.0285740589161197e+01 0 0 0
62 2 8.9538820780208734e+00 4.5904345716846855e+00 6.5881727325901904e+00 0 0 0
340 1 3.9995557405915525e+00 4.0856113209236140e+00 1.0299628680413278e+01 0 0 0
210 2 3.5899759330225639e-01 7.5552826874339321e+00 5.2623154732155388e+00 0 0 0
342 2 3.9197580204041000e+00 3.1551553952191451e+00 1.0026626544071748e+01 0 0 0
925 1 9.2950700731256202e+00 1.8423664221536647e+01 3.9831445071554517e-01 0 0 1
335 2 1.1557929848519488e+00 3.3364924217898162e+00 1.0216587553077833e+01 0 0 0
2 2 3.7421788227309811e+00 2.4276879253710391e+00 7.3895610184911620e-01 0 0 0
372 2 7.8320218002954549e+00 4.9541944601004486e+00 1.0285469862883739e+01 0 0 0
328 1 3.9688623514509764e+00 1.2996501122612336e+00 1.0083456744171601e+01 0 0 0
436 1 3.8229040401124350e+00 7.9594184286542227e+00 1.0239256187762793e+01 0 0 0
253 1 9.1811618264593378e+00 1.5651151310257490e+01 3.5067994580165224e-01 0 0 0
926 2 9.0772987007439596e+00 1.7469352654246762e+01 3.1813080915954184e-01 0 0 1
443 2 1.2424197727907800e+00 1.0135752818543120e+01 1.0240834958160889e+01 0 0 0
513 2 1.5114922688461249e-01 1.0895413344144501e+01 1.2006774052459305e+01 0 0 0
371 2 8.9103959458641917e+00 3.9951479974825674e+00 1.0955152054813114e+01 0 0 0
889 1 2.4501946168365154e+00 1.8836805832035260e+01 2.0393706131979787e+01 0 0 0
905 2 9.6503170522025918e+00 1.4467383258014500e+01 1.7400254889133656e+01 0 0 0
334 1 1.3693763084190944e+00 4.0410063564145453e+00 1.0900454371476885e+01 0 0 0
817 1 8.7638563770352214e+00 1.2134054743665493e+01 2.0253153341903367e+01 0 0 0
331 1 5.6849871184401870e+00 4.9161722236987631e+00 1.2563631749355324e+01 0 0 0
332 2 6.5327196711881239e+00 4.8671094600310090e+00 1.2045644255572151e+01 0 0 0
333 2 4.9847857469758194e+00 4.6027440070530377e+00 1.1951643540064822e+01 0 0 0
426 2 3.0436370400031970e-02 8.5788240025990170e-01 1.1889910808570793e+01 0 0 0
546 2 4.6832458990438939e+00 1.4588638159009388e+01 1.0631366092888587e+01 0 0 0
478 1 7.7609661994277603e+00 1.1251804496924604e+01 1.1120653757077084e+01 0 0 0
346 1 1.9204366065854259e+00 9.9042315501747624e-01 1.1790884997328256e+01 0 0 0
347 2 2.6177842253595962e+00 1.0212073492589591e+00 1.1076765315261589e+01 0 0 0
348 2 2.1104410468460295e+00 1.7385672034048871e+00 1.2393630500773202e+01 0 0 0
349 1 2.3147261161370238e+00 5.4558996599615073e+00 1.3819472609540838e+01 0 0 0
350 2 1.9670904348023779e+00 5.8887929005061519e+00 1.2988325565775755e+01 0 0 0
351 2 2.3025426506636868e+00 4.4457362449244533e+00 1.3717217896932931e+01 0 0 0
352 1 5.7514707004661334e+00 8.0272099653735784e-01 1.2228244503497923e+01 0 0 0
353 2 6.7077255267372564e+00 9.5138538374074488e-01 1.2084864575201712e+01 0 0 0
354 2 5.6927630607337694e+00 1.9641769834680041e+01 1.2338076109018333e+01 0 0 0
370 1 7.9335515941989581e+00 4.1528333064772491e+00 1.0895194556517767e+01 0 0 0
382 1 8.4093304444063737e+00 1.0350412439137817e+00 1.1934562708159049e+01 0 0 0
383 2 8.7632088734684341e+00 2.4755511606600844e-01 1.2306173973857483e+01 0 0 0
749 2 -4.9151732885584221e-03 7.8806314232685004e-01 1.8820855823459198e+01 0 0 0
385 1 8.4571927424828299e+00 5.7894786478055904e+00 1.3436308970229002e+01 0 0 0
386 2 8.2243471967636061e+00 4.8639186088864683e+00 1.3404758696173475e+01 0 0 0
387 2 7.9006064781107046e+00 6.1585539933272910e+00 1.4182940444352004e+01 0 0 0
587 2 8.6662618399146840e+00 1.7575218733155239e+01 1.0848539246779872e+01 0 0 0
836 2 -1.6142681271688608e-03 1.1308033627297467e+01 1.9135035669063480e+01 0 0 0
439 1 5.6091628991421603e+00 1.1662161840186863e+01 1.2600975060841749e+01 0 0 0
440 2 5.4883214095830608e+00 1.2664714908947360e+01 1.2686739652969370e+01 0 0 0
441 2 5.1453970658296955e+00 1.1426957860737543e+01 1.1773935376552084e+01 0 0 0
710 2 8.7356810452298497e+00 4.6006393152676237e+00 2.0064884807674883e+01 0 0 0
454 1 1.6472340929039460e+00 7.4494808270297446e+00 1.2070026143795960e+01 0 0 0
455 2 2.2863452771224129e+00 7.3916831320656113e+00 1.1315452402567447e+01 0 0 0
456 2 1.9365293233580014e+00 8.2316647462493506e+00 1.2621206035994920e+01 0 0 0
457 1 2.3789141444885686e+00 1.1915113890410144e+01 1.3735289909241786e+01 0 0 0
458 2 3.2426278241649338e+00 1.2007488448188120e+01 1.4118811577019477e+01 0 0 0
459 2 1.8240598314977858e+00 1.2176559033187559e+01 1.4468381908395253e+01 0 0 0
460 1 5.5350256570142475e+00 7.6823990889322866e+00 1.2250003231783188e+01 0 0 0
461 2 5.4408971986433192e+00 6.7567366778287088e+00 1.2550269082826086e+01 0 0 0
462 2 6.4942396595747596e+00 7.8036121671804608e+00 1.1978524180849442e+01 0 0 0
110 2 2.0380677432170424e+00 9.0939130926861527e+00 1.9951979584816790e+01 0 0 0
480 2 7.0061436521575580e+00 1.1371051623085069e+01 1.1778655875135396e+01 0 0 0
219 2 2.2945511755171748e+00 1.7179213248838387e+01 2.0332739519649866e+01 0 0 -1
490 1 8.2801776991462877e+00 7.8091456531480263e+00 1.1622976720229973e+01 0 0 0
491 2 8.3400534840148239e+00 6.9347430933653404e+00 1.2054114287168572e+01 0 0 0
492 2 8.7675568905251495e+00 8.3249759786088706e+00 1.2276434084488024e+01 0 0 0
493 1 9.3489851162026358e+00 1.1827711964807117e+01 1.3967881485136790e+01 0 0 0
494 2 8.7024197541135635e+00 1.2124060600175470e+01 1.4631905744392530e+01 0 0 0
495 2 9.0032580246864455e+00 1.2225874255098383e+01 1.3162245943384717e+01 0 0 0
883 1 8.4525769409184748e-01 1.9341447266256147e+01 1.5208792823256481e+01 0 0 0
37 1 9.0045525835942506e+00 2.7801696483807765e+00 2.0439252516992791e+01 0 0 -1
39 2 8.7163362965416482e+00 2.0661174014805344e+00 1.9857501080847307e+01 0 0 0
707 2 9.1951078896635838e+00 1.1716851437484705e+00 1.7909000793916952e+01 0 0 0
438 2 4.6330073007463373e+00 7.8655420923063000e+00 1.0812115802488057e+01 0 0 0
384 2 9.0101439922902440e+00 1.2111201421511242e+00 1.1192259921913505e+01 0 0 0
547 1 5.6742250101429672e+00 1.7869129367857042e+01 1.2094408951913287e+01 0 0 0
548 2 4.8998187875094832e+00 1.7682126481770091e+01 1.1526743970858544e+01 0 0 0
549 2 5.4585431460124809e+00 1.7255512606315797e+01 1.2833736681825295e+01 0 0 0
551 2 4.6660464388558653e-01 1.7677092047480343e+01 1.1240911969467566e+01 0 0 0
562 1 1.9237213275283449e+00 1.4000655517027051e+01 1.1847970734794782e+01 0 0 0
563 2 9.2742078797353100e-01 1.3947994608001322e+01 1.1781096336374093e+01 0 0 0
564 2 2.2530415668471533e+00 1.3273098532317876e+01 1.2435822820587848e+01 0 0 0
565 1 2.4898544816830275e+00 1.8630147744543855e+01 1.3310768192292743e+01 0 0 0
566 2 2.3794848330152538e+00 1.9444042191639390e+01 1.2728484858126814e+01 0 0 0
567 2 3.3026363393976879e+00 1.8895525834377928e+01 1.3808572594833318e+01 0 0 0
568 1 5.9313455864535634e+00 1.4233641447202544e+01 1.1799268923199241e+01 0 0 0
569 2 6.8812042763753674e+00 1.4292714147782323e+01 1.1576342665717194e+01 0 0 0
570 2 5.9205750603217808e+00 1.4935588518431702e+01 1.2548125370076509e+01 0 0 0
782 2 2.2666441038911160e+00 1.1459245109504934e+01 1.9965840429584585e+01 0 0 0
341 2 3.0482759162188611e+00 4.2732809586902478e+00 1.0478476590721245e+01 0 0 0
588 2 7.0980753266735670e+00 1.7669903890134393e+01 1.1426670638846787e+01 0 0 0
598 1 8.5858457570655897e+00 1.4266500570381325e+01 1.2009381150025266e+01 0 0 0
336 2 5.9971056877528750e-01 4.0402070878914085e+00 1.1518016874856135e+01 0 0 0
600 2 8.6709185164703264e+00 1.4971564993975228e+01 1.2703983080788053e+01 0 0 0
601 1 8.9835908142645202e+00 1.8785120291926411e+01 1.3601377705833112e+01 0 0 0
603 2 8.1653277266212143e+00 1.8980137726300043e+01 1.4086831285853791e+01 0 0 0
685 1 8.8320338827373437e+00 2.7772138134070730e+00 1.4225196582110165e+01 0 0 0
330 2 4.6167418360397825e+00 1.1415075927061251e+00 1.0766692034415366e+01 0 0 0
649 1 2.1326333664523549e+00 2.9027464343085572e+00 1.3737355628081188e+01 0 0 0
650 2 3.0747584996825061e+00 2.7259852343326463e+00 1.3924212283661321e+01 0 0 0
651 2 1.6707493344182454e+00 2.7288908063610733e+00 1.4532847465230406e+01 0 0 0
652 1 3.8133266378216195e+00 1.1837463977433114e+00 1.6906600749545849e+01 0 0 0
653 2 4.0723295560736474e+00 2.1162108447294745e+00 1.6828249452754914e+01 0 0 0
654 2 4.5717878357419313e+00 8.1057496149215646e-01 1.7470225604024979e+01 0 0 0
655 1 5.7588266019409504e+00 4.8432776201912677e+00 1.9349934954808166e+01 0 0 0
656 2 5.6408244962401728e+00 5.8625179072981668e+00 1.9468822899706719e+01 0 0 0
657 2 6.6696618862273249e+00 4.8166341779199158e+00 1.9027647214017385e+01 0 0 0
658 1 1.0238541707936937e+00 4.1981592848734302e+00 1.7489616953465866e+01 0 0 0
659 2 8.2141703590866966e-01 3.4501649405688202e+00 1.6832239509206840e+01 0 0 0
660 2 9.5738190462729955e-01 4.9656008765071498e+00 1.6959323993301865e+01 0 0 0
661 1 4.4868345347905558e+00 5.8470877623581448e+00 1.5678637800826339e+01 0 0 0
662 2 4.3675119791850570e+00 5.0921193645467486e+00 1.6250497951987342e+01 0 0 0
663 2 3.8342891830408390e+00 5.7278798345258117e+00 1.4953113178185927e+01 0 0 0
664 1 4.2463508961032757e+00 3.8670143194631836e+00 1.7415933576228952e+01 0 0 0
665 2 3.3702542624547096e+00 4.2060135142630966e+00 1.7645409956965274e+01 0 0 0
666 2 4.9095910708693831e+00 4.4420255494643870e+00 1.8045198355502368e+01 0 0 0
667 1 5.4366614890201503e-01 6.2980494035374139e+00 1.5727648828214450e+01 0 0 0
668 2 4.9205041140124361e-01 7.3134764935264034e+00 1.5942096226673769e+01 0 0 0
669 2 1.1331551024034736e+00 6.1215393204551596e+00 1.4997327333418822e+01 0 0 0
670 1 1.6741600582718592e+00 1.1953324921047204e+00 1.8724042833848486e+01 0 0 0
671 2 1.8626391511581255e+00 1.9330934453659308e+00 1.9396828584851367e+01 0 0 0
672 2 2.4294974520873311e+00 1.2578985947749006e+00 1.8075433899284810e+01 0 0 0
676 1 5.8255344947960630e+00 6.9902836468461527e-01 1.8652027285058210e+01 0 0 0
677 2 5.5755696169565701e+00 1.2591825107726669e+00 1.9394540447665104e+01 0 0 0
678 2 6.7644336030998540e+00 8.8277372559896183e-01 1.8660375908573450e+01 0 0 0
679 1 7.7727295108041294e-01 2.2104919893390269e+00 1.5888867128120927e+01 0 0 0
474 2 9.6383735866527971e+00 8.1519474888591983e+00 1.0486300415537739e+01 0 0 0
681 2 1.0566988482896067e+00 1.2832526782981193e+00 1.5943849682941662e+01 0 0 0
682 1 4.9375984400999524e+00 2.6527862640303241e+00 1.4114568002142009e+01 0 0 0
683 2 5.2678975287921403e+00 3.5459352995249382e+00 1.3708551812307011e+01 0 0 0
684 2 5.2566724441234136e+00 1.9396977854744459e+00 1.3535490033741073e+01 0 0 0
798 2 9.3230314030669632e+00 7.6988604719441387e+00 1.7565746954413484e+01 0 0 0
687 2 8.6271040786277506e+00 2.1060436488717156e+00 1.3508072145865521e+01 0 0 0
694 1 7.9983040403870138e+00 4.6717624526318602e+00 1.7775735293111399e+01 0 0 0
695 2 8.9571116837231077e+00 4.4616510904301823e+00 1.7653577382880162e+01 0 0 0
696 2 7.5511654828621033e+00 3.9315058120991031e+00 1.7288392406690431e+01 0 0 0
703 1 7.0721438843160263e+00 6.6967721552768724e+00 1.5681369089484495e+01 0 0 0
704 2 7.3561817264894032e+00 6.2178962888453970e+00 1.6476354867268441e+01 0 0 0
705 2 6.1633504169434312e+00 6.5724298088637534e+00 1.5452670269355004e+01 0 0 0
706 1 8.5763694195922167e+00 9.3544434062597914e-01 1.8665521789653173e+01 0 0 0
599 2 9.2015414173288459e+00 1.4564967337011220e+01 1.1313464407730480e+01 0 0 0
708 2 8.9249764142270003e+00 1.9986191628873023e+01 1.9135058079127585e+01 0 -1 0
715 1 6.9807740676824466e+00 2.4646018995454781e+00 1.6067925769144182e+01 0 0 0