LAMMPS data file via write_data, version 15 Apr 2020, timestep = 0

1944 atoms
2 atom types

-1.1991683823247712e-01 4.0102021838232844e+01 xlo xhi
0.0000000000000000e+00 1.9724893057253635e+01 ylo yhi
0.0000000000000000e+00 2.0386026055673746e+01 zlo zhi
-3.1679792433315868e-02 -1.3141234953735648e-02 1.4117590371473199e-02 xy xz yz

Masses

1 16
2 2

Atoms # atomic

720 2 5.7906077723913159e+00 1.4180736946715847e+01 6.5117242503251473e+00 0 0 -1
1815 2 1.4890604107769640e+01 6.9415558272263782e+00 5.0112930702410621e+00 0 1 1
1608 2 1.0206451021346908e+01 1.9724896577981308e+01 3.7652645883882080e-01 0 -2 0
666 2 2.6190762472842359e+00 5.6441164465302345e+00 9.5074636192380186e+00 0 0 0
517 1 1.9608767502107920e+01 1.7683350848166103e+01 6.0533048243931020e+00 0 0 0
316 1 1.2715343543084364e+01 5.9871248681146563e+00 4.6467301517382582e+00 0 0 1
732 2 1.8502550049008299e+01 1.3285106217178939e+00 1.3108349884022361e-02 0 0 1
460 1 5.4758735359675521e+00 8.3650964874689500e+00 9.0407558459516491e+00 0 1 0
1784 2 1.2663752933736854e+01 9.0645469732422814e+00 7.4679980912877912e+00 0 1 0
12 2 3.7720831426867890e-01 1.8169388689922911e+01 1.5844790410452294e+00 0 -1 0
432 2 1.1513835333171276e+00 7.8239265027312843e+00 1.8848120231506285e+00 1 0 0
535 1 1.3518044262797927e+01 3.3437610801571482e+00 4.6268795862976360e+00 0 1 0
691 1 1.8075699567708718e+01 1.0298672866622114e+01 9.4563384576826266e+00 0 0 0
80 2 1.0983151011536300e+01 1.8607364277483349e+01 2.4861314212990417e+00 0 0 0
481 1 1.0282627198309532e+01 1.7070903002952463e+01 3.0483664976778106e+00 0 0 0
1783 1 1.2748729509724091e+01 8.7860326887898577e+00 6.5220292522861731e+00 0 1 0
1135 1 6.0154351887814261e+00 1.1032782813116244e+01 8.4844017262012841e+00 0 1 0
68 2 2.8123005190740189e+00 2.7918682394067416e+00 7.5298127542807709e+00 0 0 0
93 2 1.8902110672103884e+01 1.3685392043336499e+01 9.2309852162769879e+00 0 0 -1
1833 2 8.8541567672916734e+00 1.9366937318046553e+01 4.2195033102122625e+00 0 -1 0
1559 2 6.7987234609096623e+00 8.2569552792942229e+00 4.5702729248678491e+00 0 1 1
66 2 1.7253785281119892e+01 9.3461740277587939e+00 2.3791398652579425e+00 0 0 -1
29 2 6.2735514763313081e+00 1.7299224288257079e+01 8.8732943958289994e+00 0 0 0
1798 1 1.1612681554178240e+01 1.6122527547574701e+00 8.2461843689681533e+00 0 1 1
1607 2 9.3975181396028500e+00 1.8412110599029923e+01 4.7611685584588187e-01 0 -2 0
1100 2 8.4813410046215783e+00 1.0448652578855693e+01 3.6495361600291694e+00 0 0 0
1323 2 6.5397333509350704e+00 1.9292725198507931e+01 5.8751159744535135e+00 0 0 0
1319 2 4.5860994221514444e+00 1.9361272577020348e+00 8.5774110920107738e+00 0 1 0
939 2 2.5972339548464927e+00 1.3452970421006659e+01 4.7580800039813003e+00 0 0 0
749 2 1.4504812764528566e+01 1.2646557513278040e+01 6.7971220734704270e+00 0 0 1
1140 2 8.0459005734614948e+00 1.3459056780919938e+00 2.8238518906111501e+00 0 0 1
102 2 1.8628091947364332e+01 6.2459823960446714e-01 4.9194848584756015e+00 0 1 0
1786 1 2.2412661798211970e+00 1.7851119395296635e+01 5.0438581628560391e+00 0 0 1
679 1 5.8168995535227669e-02 7.7954723015603786e+00 9.5401925272608672e+00 0 0 0
1577 2 1.8904090237459947e+01 6.5288447250258050e+00 5.0078216702281670e+00 0 0 1
1105 1 2.1408471488454208e+00 4.6193356988998859e+00 8.2444653510944199e-01 0 1 1
1563 2 7.5323183566900669e+00 4.8360043969303055e+00 6.9831572212674375e+00 0 1 0
1578 2 1.9264314368657676e+01 7.2485217784475227e+00 6.4795115145397579e+00 0 0 1
1107 2 2.9453585097046808e+00 5.0854228463234676e+00 1.2981934977331306e+00 0 1 1
28 1 7.1498859449833239e+00 1.7642379900488535e+01 8.5306179679689329e+00 0 -1 0
1098 2 4.3355944132462367e+00 5.7833507620127609e+00 7.8813160663155672e+00 0 1 0
1747 1 1.9952515514234430e+00 8.5094507362472172e+00 7.9824792259474924e+00 0 0 1
1771 1 1.5859705357179919e+01 5.4251672984714894e+00 1.9443385605527137e+00 0 0 0
1154 2 1.8119869419944305e+01 8.8340083355427286e+00 7.8174340242246725e+00 0 1 0
21 2 6.9974424677286837e+00 4.7904867761992600e+00 9.1905039416735175e+00 0 0 0
934 1 1.5440003138471740e+01 1.1932506476943450e+01 1.3718506173664202e-01 0 1 1
1373 2 7.9034907997169501e+00 1.1815524436594592e+01 9.7845657861908253e-01 0 0 1
1332 2 1.6267338157471819e+01 4.6102978995429931e+00 6.7785935475401438e+00 0 0 0
1756 1 9.3400388873938649e+00 1.2765800742910336e+01 1.4954942454956649e-01 0 0 1
431 2 5.5370734679530320e-01 6.7817105665404700e+00 2.7310685147414775e+00 1 0 0
1803 2 1.8802942020267984e+01 1.4613267435419216e+01 6.0007900503605285e+00 0 1 1
1583 2 9.7471623604960431e+00 1.4384918964887895e+01 2.7781305504895664e+00 0 0 0
1375 1 1.5938679879293488e+01 1.2117350385243096e+01 9.7597654484235790e+00 0 0 1
512 2 4.2373559643070076e+00 1.7245896591642793e+00 7.7176496293078889e-01 0 0 0
1537 1 -5.1842421446864573e-02 1.4342817840209202e+01 2.8542110595394425e+00 0 0 1
513 2 5.2213073064868833e+00 2.9001997143986977e+00 5.4781074475749725e-01 0 0 0
269 2 1.7341696592581922e+01 1.4993748800627058e+01 2.6859909458709077e+00 0 0 0
471 2 1.3029278677733998e+01 1.7594158605124804e+01 7.4144863501824325e+00 0 0 -1
966 2 6.1675816726258041e+00 1.7342664723469653e+01 1.5738912180776448e+00 0 0 0
1560 2 5.4779808181990193e+00 8.2003042199752691e+00 5.5472143229479896e+00 0 1 1
443 2 4.1700934804558161e+00 5.8210978227670065e+00 5.5574120784635923e+00 0 1 0
943 1 1.5852242001583846e+01 3.0691547436467252e+00 3.3311053114061235e+00 0 1 1
1308 2 7.9666878851402867e+00 2.5552950273978188e+00 6.4568811572859044e+00 0 0 1
1764 2 8.8669921452020839e-01 4.8669274982336397e+00 2.1000786439962185e+00 0 1 0
1164 2 8.1478501178171925e+00 1.5489973556441459e+01 1.1473320110632748e+00 0 0 1
678 2 1.4608509909919138e+00 6.8004538118567446e+00 5.1236259676173406e+00 0 0 0
716 2 1.8170093682895651e+01 3.9629544533035732e+00 1.5053486793415105e+00 0 0 1
469 1 1.3854702592294823e+01 1.7686167859037742e+01 6.8793173564978831e+00 0 0 -1
1519 1 1.1051042644067559e+01 1.8663492925055337e+01 7.2302953817706683e+00 0 -1 1
1181 2 1.5425510684260113e+01 6.1373345271561075e-01 6.9396407295995228e+00 0 1 0
67 1 3.0317571179293021e+00 1.8697709234370083e+00 7.4223254210018448e+00 0 0 0
913 1 1.6598888393904524e+01 1.7821557234915232e+01 5.8627971174750906e+00 0 0 0
899 2 1.0169959232031079e+01 1.0102369382907098e+01 1.5734896013968220e+00 0 0 0
1306 1 8.1360108165000788e+00 3.3529878319276545e+00 5.9942835281742370e+00 0 0 1
1082 2 1.6614411114348400e+01 2.9894604205489657e+00 5.1191215313563543e+00 0 1 0
1084 1 4.4415843752811757e-01 9.9409257837256231e+00 4.2395160941862668e+00 0 0 0
483 2 9.7809161791192949e+00 1.7134450521700721e+01 3.8744351668722961e+00 0 0 0
26 2 9.0496488894042475e+00 5.9940339755865848e+00 3.1425297680256321e+00 0 0 0
1325 2 1.0174598650100002e+01 1.5602315991225868e+01 8.9496890015079096e+00 0 -1 0
1121 2 1.0802702777341047e+01 1.4908649073508995e+01 4.9118174026531740e+00 0 0 0
750 2 1.5967307882302155e+01 1.2204092657086283e+01 7.0225962583044410e+00 0 0 1
1137 2 6.9005766959667447e+00 1.1213957108019819e+01 8.8504098794245056e+00 0 1 0
738 2 1.9143947683145029e+01 9.5338476127016278e+00 4.6893744877933013e-01 0 0 0
532 1 1.6763211244779225e+01 1.6230816473194647e+01 9.9836390357306239e+00 0 1 -1
944 2 1.5675157200141603e+01 2.4696011303312302e+00 2.6043518915951447e+00 0 1 1
270 2 1.6803112313136726e+01 1.5780247125891963e+01 3.8909893551550372e+00 0 0 0
1604 2 1.6675581271882244e+01 1.0115772335614244e+00 9.4120932905502741e-01 0 1 1
42 2 8.2679276717691721e+00 1.3610965082154699e+01 1.0014200254444663e+01 0 -1 -1
232 1 1.7472207461240384e+01 1.2270412563085468e+01 3.8969810281946828e+00 0 0 -1
1366 1 1.8442083768626564e+01 1.5690030731880720e+01 6.2409521465407791e-01 0 0 1
1394 2 1.2143124578617789e+01 1.1677827119477037e+01 5.7805593416539063e+00 0 0 0
264 2 1.2857331101661714e+01 1.5240280453395300e+01 2.1779352164321391e+00 0 0 0
1322 2 6.1914740641544785e+00 1.8897113410822936e+01 4.4378905255208698e+00 0 0 1
1539 2 -1.1318054989604229e-01 1.3380569706074779e+01 2.6794555551104748e+00 0 0 0
573 2 1.9784623163743586e+01 1.5329933203149341e+01 1.7762447422891172e+00 0 0 0
537 2 1.2653996592516361e+01 2.9755585730682532e+00 4.2443943128485522e+00 0 1 0
898 1 1.0062584654948720e+01 9.6201195265845474e+00 7.4758945884769890e-01 0 0 0
58 1 3.7611934826360427e-01 4.7760084401092815e+00 9.8021585403077882e+00 0 0 -1
141 2 1.9702978876502232e+01 2.3113188350864871e+00 2.3309610469271034e+00 0 0 0
1367 2 1.8828567428615028e+01 1.6541513828311817e+01 2.8354426878476940e-01 0 0 1
709 1 1.9192176199881224e+01 4.0828729544526698e+00 6.5788903171235678e+00 0 0 0
518 2 1.9408109875541779e+01 1.8654637495481502e+01 5.9805387831625385e+00 0 0 0
933 2 1.4140812430658618e+01 9.4233501685611927e+00 3.6093433497833853e+00 0 0 0
47 2 3.2241099283451352e-01 3.8454582764979156e-01 6.0223630710097211e+00 0 0 0
1093 1 1.7483427093875960e+01 1.2196050008905402e+01 6.5290761517856231e+00 0 2 0
1609 1 6.9956552471364208e+00 1.3240973698738495e+01 3.6908329061797156e+00 0 0 1
430 1 5.3085744051158590e-01 7.7218901881400939e+00 2.6003879273826755e+00 1 0 0
1139 2 8.5620177544409746e+00 1.3810754759000993e-01 1.9508574275670680e+00 0 0 1
75 2 1.7475471562297610e+01 5.4668874231935591e+00 8.4271162396163071e+00 0 0 0
30 2 7.4851682543646199e+00 1.8120575803169920e+01 9.3094049505915564e+00 0 -1 0
1818 2 1.6975678388768980e+01 6.8954155850131160e+00 4.3153810989208852e+00 0 2 1
1307 2 9.1807877898807124e+00 3.3783395796470406e+00 6.0211268906238562e+00 0 0 1
964 1 6.2458778590668969e+00 1.7925113588239281e+01 2.3878429603662941e+00 0 0 0
1395 2 1.2990407218270503e+01 1.0990336617407296e+01 4.7200267645137881e+00 0 0 0
1806 2 1.3070884783492412e+01 3.6203334678343331e+00 1.5621545595150959e+00 0 1 1
1083 2 1.6538750099278325e+01 2.2432514589985977e+00 6.5297733948565346e+00 0 1 0
693 2 1.7266449970418744e+01 1.0867716547592360e+01 9.3871852355304828e+00 0 0 0
100 1 1.9336263254016512e+01 7.1680532137006148e-01 5.6381835204722774e+00 0 0 0
69 2 2.4317598540752932e+00 1.4410918291478469e+00 6.7115122538288681e+00 0 0 0
1591 1 1.2148050625203332e+01 1.0150562879077238e+01 9.0216613274634199e+00 0 0 0
742 1 1.9107340567423872e+01 1.6746992511028584e+01 8.3350705632877844e+00 0 -1 0
268 1 1.7664410339888622e+01 1.5504743492889061e+01 3.4598388860197948e+00 0 0 0
751 1 1.1863146613823304e+01 6.5081507818242779e+00 1.5657570671879881e+00 0 1 0
710 2 1.9318232969339828e+01 5.0237235561017695e+00 6.3852782123208520e+00 0 0 0
715 1 1.8436574705964375e+01 3.9172320678163626e+00 2.4328044239822066e+00 0 0 1
267 2 1.5957307714597768e+01 8.5963312524880102e+00 6.7220065250388270e+00 0 0 0
64 1 1.7162993065108026e+01 9.5532589494207532e+00 3.3232212775127139e+00 0 0 -1
1081 1 1.6804195454644759e+01 3.0532183920564639e+00 6.0697142519809635e+00 0 1 0
1805 2 1.4025807798455126e+01 4.5779858990785494e+00 1.0150005371668793e+00 0 1 1
454 1 6.1324135797356858e+00 3.7325145054809328e+00 4.1925094943262629e+00 0 1 0
677 2 2.9198240646633955e-01 7.1351587710163864e+00 6.0186844532790360e+00 0 0 0
1618 1 1.7159625954782591e+01 1.7198667250151342e-01 4.1285185459148241e+00 0 0 0
938 2 4.1501986258142676e+00 1.3634936957685232e+01 4.9021266737240481e+00 0 0 0
470 2 1.4520798658643935e+01 1.7055239757152687e+01 7.2403017587209204e+00 0 0 -1
1813 1 1.5777219250018636e+01 7.1077648373232565e+00 5.4753402797394815e+00 0 1 1
229 1 1.1753633820283864e+00 1.3597779788124646e+01 5.7027465832846636e+00 0 0 0
1580 2 8.8354843547557649e-01 1.8645237435284074e+01 8.7619678044112366e+00 0 -1 0
1374 2 6.5565138574358155e+00 1.1318929489070866e+01 1.6251736519679794e+00 0 0 1
262 1 1.2671386732864081e+01 1.6184446973872877e+01 2.0463091381712410e+00 0 0 0
719 2 4.7180057952938332e+00 1.5215345776985426e+01 6.7663126757863248e+00 0 0 -1
658 1 1.1279696888374144e+00 1.5562270200596691e+01 7.5865452703034268e+00 0 -1 0
96 2 1.0889648908779845e+01 6.2977210264188965e+00 9.7275233743640523e+00 0 0 0
1099 1 7.7994388359220332e+00 9.9377286575318564e+00 4.1338780070631218e+00 0 1 0
1096 1 4.7796324339455083e+00 6.4069360490335692e+00 7.2276568109904291e+00 0 1 0
696 2 1.5171190429165303e+01 1.6844147147057669e+01 4.9966603380058814e+00 0 -1 0
1299 2 1.6391342300699574e+01 6.0001141886841207e+00 2.1330172737352371e-01 0 0 0
962 2 3.7920004463268837e+00 1.4281093268448197e+01 9.7567358979583378e+00 0 0 0
1562 2 7.8704030916741701e+00 6.3580049597824413e+00 7.4298139141024242e+00 0 1 0
94 1 1.0703781334472099e+01 7.1698083859109847e+00 9.3470636915862357e+00 0 0 0
1120 1 1.1533571822263044e+01 1.5133753389829367e+01 5.5014614369230612e+00 0 0 0
748 1 1.5061915081932922e+01 1.1969659932931634e+01 7.3137396534034833e+00 0 0 1
87 2 1.3473111625441001e+00 4.3830106310530725e+00 4.4565402847722382e+00 0 0 0
903 2 1.1294471012615267e+01 6.1245647161503061e-02 5.8198582350683514e+00 0 1 0
225 2 1.9860950180444550e+00 4.8498786985326010e+00 7.0596607731577929e+00 0 1 0
49 1 3.7013020501243177e+00 1.3442966080791351e+01 1.3864177012358707e+00 0 -1 0
1148 2 1.5319569041402534e+01 1.5167707265851170e+01 9.5552015538469071e-01 0 0 0
1180 1 1.5885666982553680e+01 9.7255296299398120e-01 7.7289094369863722e+00 0 1 0
1377 2 1.5495254685134730e+01 1.2165243591830897e+01 8.8405601729219594e+00 0 0 1
442 1 3.9361843408670607e+00 5.3520072883786423e+00 4.7055275927448230e+00 0 1 0
50 2 3.6051098185796944e+00 1.3103789658086344e+01 2.2839633990590795e+00 0 -1 0
1318 1 5.4462045409552022e+00 1.9849016619580413e+00 9.0562170534287016e+00 0 1 0
250 1 1.5254767812833064e+01 1.5354577533801725e+01 7.9603472448408779e+00 0 -1 0
1753 1 9.0477471792593978e-01 1.2043121938098844e+00 9.7596455899304573e+00 0 1 0
1828 1 1.0273803300133636e+01 6.8403783729879724e+00 3.5525762320680201e+00 0 0 0
1749 2 1.8937937150016078e+00 8.2404033653712787e+00 7.0518224199231234e+00 0 0 1
86 2 2.5074993713686755e+00 4.4753385507408430e+00 5.4107435119996241e+00 0 0 0
1757 2 9.1845674964031812e+00 1.3680219283257456e+01 3.1773635463738381e-01 0 0 1
1744 1 1.3680010960261782e+01 3.1584606752160185e+00 7.1747737161803293e+00 0 1 0
1330 1 1.6117008211921860e+01 5.4317422884093398e+00 7.3192309728830711e+00 0 0 0
318 2 1.2592344034955257e+01 6.0280845430898591e+00 5.6333516527984395e+00 0 0 1
235 1 1.2187827278795414e+01 1.2041829467602767e+01 1.6938458185490360e-01 0 0 0
1793 2 1.2715927632008020e+01 1.6719447543744426e+01 3.9944118022059311e-01 0 -1 1
478 1 1.5858922136929674e+01 1.8387870510586552e+01 9.5726578052714262e-01 0 0 -1
744 2 1.9638734194186775e+01 1.6971932393607844e+01 7.5538923271525107e+00 0 -1 0
95 2 9.7821262625541454e+00 7.2960004545824004e+00 9.4528021988179418e+00 0 0 0
294 2 1.9001180642333246e+01 1.3288263973606286e+01 4.2277496318428316e+00 0 -1 -1
1620 2 1.7385612928304187e+01 1.9146529647574702e+01 3.5466804488449930e+00 0 -1 0
1326 2 9.5100880415497215e+00 1.6423501304374156e+01 7.7796905288879561e+00 0 0 0
1605 2 1.7016063733023760e+01 1.0313556683943039e+00 2.3747594667209873e+00 0 1 1
969 2 7.8394855324595945e+00 1.4759962523560375e+01 6.9538296402663828e+00 0 0 0
654 2 3.8374172976863368e+00 9.0543941355292841e+00 7.1692071213774531e+00 0 0 0
455 2 6.8305883378985079e+00 3.4355806948662586e+00 4.8712055785963324e+00 0 1 0
896 2 8.5586632188412395e+00 9.4481949207251930e+00 8.1120283461085094e+00 0 0 0
752 2 1.1181086905163294e+01 6.9249416316542085e+00 2.1327147875848969e+00 0 1 0
526 1 1.6012945467833475e+01 1.3759339515210593e+01 2.1890909358487121e+00 0 0 0
1551 2 1.3019336959845997e+01 1.2715468318829634e+01 1.5331460705250510e+00 0 0 1
1569 2 4.2275599219496032e+00 1.0455970184439101e+00 3.3433940107200213e+00 0 0 1
320 2 1.0990077859228091e+01 1.0746844952975927e+01 3.4597067638393537e+00 0 -1 1
230 2 1.2219446275286381e+00 1.2735830278211695e+01 6.1924017181117614e+00 0 0 0
1138 1 7.7997292279045860e+00 4.5793055915088227e-01 2.5251856586380317e+00 0 0 1
1545 2 4.0978725068216910e+00 1.3110869823125581e+01 7.5826689781887211e+00 1 0 0
276 2 1.1750547180393529e+01 1.1428975539382938e+01 7.9648249949908410e+00 0 0 0
919 1 2.4323674482652502e-01 1.2314613851550087e+00 3.3259271185166868e+00 0 1 0
1741 1 1.1877596557106820e+01 5.6170310864117408e+00 7.2769170444600082e+00 0 1 0
1610 2 7.0985626714154275e+00 1.2612088871609780e+01 2.9877104030747303e+00 0 0 1
444 2 4.6758144041574505e+00 4.6986435095663781e+00 4.5754532196396216e+00 0 1 0
1088 2 1.8174660919983201e+00 1.0264986356414591e+01 7.3850222238864385e+00 0 1 0
227 2 5.0630826132792162e-01 1.1539281272669507e+01 1.5541854689518890e+00 0 0 0
893 2 8.7953974908038006e+00 3.7972374230956287e+00 2.9743563321275790e+00 0 0 0
743 2 1.9602012644151991e+01 1.6070023411811210e+01 8.8428337343809567e+00 0 -1 0
1759 1 1.5275463501991611e+00 1.5107376495683289e+01 4.9638987760050557e-01 0 0 1
886 1 1.4027546893791786e+01 5.7336573783613414e+00 8.8906733050996536e+00 0 0 0
1582 1 9.7940051828879700e+00 1.3624766571490605e+01 3.3591704009452314e+00 0 0 0
901 1 1.1815567277041399e+01 6.6819127537459744e-01 5.2674116824455881e+00 0 1 0
649 1 3.0778057830711614e+00 1.8952731286728834e+01 8.6011640684815855e+00 0 -1 0
437 2 7.2109836720407969e+00 7.9151226011129081e+00 1.0451146892261443e+00 0 0 0
1382 2 1.8919129614733809e+01 7.9959504750881027e+00 1.8902671931946959e+00 0 0 0
1155 2 1.9557692180435602e+01 8.2732551719862908e+00 8.1545454048467274e+00 0 1 0
753 2 1.1970106555217537e+01 7.1604968287790767e+00 7.9261745950130880e-01 0 1 0
251 2 1.5798390002220074e+01 1.4981440726480313e+01 7.2895989448394012e+00 0 -1 0
1832 2 8.4709544317296892e+00 1.8298210926779536e+01 5.3452482245160091e+00 0 -1 0
684 2 1.8822919493790997e+00 1.6678413775204859e+01 5.9581555621648008e-01 0 -1 0
876 2 5.2581249084095791e+00 1.0908804555928869e+01 5.8225520444588561e+00 0 0 0
436 1 8.0650872672547393e+00 7.5220365243416571e+00 1.0656265582881472e+00 0 0 0
1087 1 1.7572929485161461e+00 1.1236606751860551e+01 7.1268823378490156e+00 0 1 0
931 1 1.4308217868424903e+01 1.0106548665547114e+01 4.2554790308470682e+00 0 0 0
909 2 2.8964157890863040e+00 1.1969771292389117e+01 9.8267028437798434e+00 0 0 0
652 1 4.3525495735126878e+00 9.4398567968095755e+00 6.4555570955998949e+00 0 0 0
1745 2 1.3039983680921791e+01 3.8994840514083857e+00 7.3163908267209896e+00 0 1 0
536 2 1.3487726373305104e+01 3.2755620831821766e+00 5.6594411976700973e+00 0 1 0
914 2 1.7449897408954410e+01 1.7610912303899887e+01 5.4400029289005829e+00 0 0 0
223 1 2.3791158799179026e+00 4.6021012467212081e+00 7.9713109532528481e+00 0 1 0
534 2 1.7347216367048880e+01 1.5433459356071223e+01 9.9481016952204175e+00 0 1 -1
1743 2 1.1124127641710565e+01 6.0620871962983651e+00 7.7026348827158468e+00 0 1 0
1331 2 1.5261122895099717e+01 5.2450466517091350e+00 7.8434642405046642e+00 0 0 0
1748 2 1.1507768028015091e+00 8.2420165502125027e+00 8.4118044057270307e+00 0 -1 1
1760 2 2.2134861745858152e+00 1.4535079858151310e+01 9.0786159176445125e-01 0 0 1
480 2 1.6739400693318437e+01 1.8242461361656680e+01 1.3873235655287630e+00 0 0 -1
1358 2 1.4287807143932158e+01 1.8946665128004284e+01 5.8761179985608170e+00 0 0 -1
1163 2 9.4979389183102310e+00 1.5938970152242970e+01 4.2060805643601612e-01 0 0 1
482 2 9.7595440773086359e+00 1.6476560338346609e+01 2.4407761633090699e+00 0 0 0
1603 1 1.7047721258949910e+01 1.5748916279449801e+00 1.5937317173708423e+00 0 1 1
285 2 5.6729414729549568e+00 1.4902111032796231e+01 1.3902021005220271e+00 0 -1 0
692 2 1.8869421058323649e+01 1.0860913006954917e+01 9.3085941465897477e+00 0 0 0
1361 2 8.9060100564224296e+00 8.2596451804126279e+00 6.3560931409747514e+00 0 0 0
283 1 6.1605446002196063e+00 1.5648628796645662e+01 1.0184633332388540e+00 0 -1 0
281 2 6.6420537271457665e+00 4.3572040307248336e+00 1.5487708195122729e+00 0 0 0
108 2 1.4104639406831494e+01 1.8673036352211426e+01 1.0005040707416308e+01 0 0 1
306 2 1.0296311562772877e+01 9.6568711335067974e+00 5.1359663083316036e+00 0 1 1
84 2 1.5189300325456674e+01 9.3271953568260049e+00 9.2591756590689389e+00 0 0 -1
664 1 2.9372041934738990e+00 6.4275276865002464e+00 1.0015630982784595e+01 0 0 0
701 2 5.0359505846119781e+00 8.8730862875752532e+00 1.4681018212596648e+00 0 0 -1
1800 2 1.1291122015621301e+01 7.3036545118517227e-01 8.0141988455164110e+00 0 1 1
866 2 7.8939375745156113e+00 3.8242798897879092e-02 8.0909574311023640e+00 0 0 0
1772 2 1.5425636204142663e+01 6.1518896978970741e+00 2.4347387179454985e+00 0 0 0
1122 2 1.1263963824136384e+01 1.5252641631917337e+01 6.3954109441938716e+00 0 0 0
1820 2 7.5846566480809221e+00 1.7058434898021435e+01 7.0763731151537250e+00 0 0 0
1305 2 4.5760378368775942e+00 1.6152340631539943e+01 1.0072110350657427e+01 0 -1 0
897 2 9.0891726751322217e+00 1.0795171968289814e+01 7.6278181197349273e+00 1 0 0
1086 2 4.2931966987102299e-01 9.0126645390509807e+00 4.0193551788287527e+00 0 0 0
1369 1 1.5049088209502489e+01 8.9840050876950031e+00 4.4363370530288948e-01 0 0 1
1521 2 1.0201763608940546e+01 1.8764922379887338e+01 6.7025086594148577e+00 0 -1 1
698 2 1.1127321368903276e+01 2.7918935795005795e+00 2.7558706156326211e+00 0 1 1
257 2 2.1092548072673583e+00 1.0507448984172962e+01 2.7543365528617869e-01 0 0 1
1125 2 1.1185677087680615e+01 3.9302833143001754e+00 6.5056379799844137e+00 0 1 0
1149 2 1.6720861959216172e+01 1.5543192589545125e+01 4.4042224457822582e-01 0 0 0
1826 2 1.7967471484390536e+01 1.7094457378646098e+01 2.8607829816925761e+00 0 0 1
1550 2 1.2676652310347798e+01 1.2941987045770306e+01 3.0173788945887758e+00 0 0 1
1785 2 1.3464921257489925e+01 9.3074460769423251e+00 6.2306832175573925e+00 0 0 0
1381 1 1.8231578186409017e+01 8.1977244843178525e+00 1.1841200251001653e+00 0 0 0
1804 1 1.3776299571730384e+01 3.6635633943716432e+00 8.9213199661948628e-01 0 1 1
1538 2 6.6237570014973401e-01 1.4722691571427193e+01 2.3366780799494844e+00 0 0 0
1313 2 3.1290640772781431e+00 1.8206859152746475e+01 2.0317469826356658e+00 0 -1 1
511 1 5.0369469698819964e+00 1.9635405217417887e+00 3.1065370047013496e-01 0 0 0
1554 2 3.2483321228353570e+00 1.1342829859314429e+01 4.2305540976315941e+00 0 0 1
231 2 1.2944403069718764e+00 1.4307141191186746e+01 6.3654181236263279e+00 0 0 0
282 2 5.2286675064632488e+00 4.8115916494187552e+00 1.6843373141085263e+00 0 0 0
256 1 2.0997845685507306e+00 1.1495881280516334e+01 2.8361352829514436e-01 0 0 1
1398 2 1.9517233852112877e+01 9.6872550830055832e+00 6.7523280632982097e+00 0 -1 1
252 2 1.5858052069121950e+01 1.5680046043769682e+01 8.6961644642396774e+00 0 -1 0
1362 2 7.4147486058948449e+00 7.9504609753877791e+00 6.4223376856307990e+00 0 0 0
1183 1 1.4213477908917787e+01 7.8174019984056189e+00 2.5964118512949095e+00 0 0 0
1558 1 6.2682415962046489e+00 7.7591068539019279e+00 5.1808026542947090e+00 0 1 1
301 1 1.3977581248616270e+01 6.3651259452941600e-01 9.8724172437820918e+00 0 0 -1
932 2 1.5243279580935694e+01 1.0290107866355624e+01 4.3864404480896102e+00 0 0 0
1535 2 4.2835443410095833e+00 6.7486628309422452e+00 1.7686923022625598e+00 0 -1 0
1830 2 1.1141703191600456e+01 6.5493829149628624e+00 3.9314905407844969e+00 0 0 0
462 2 5.2197363895614410e+00 7.7078928535903426e+00 8.3459663914551481e+00 0 1 0
1799 2 1.1205580865671784e+01 1.8988998322554076e+00 9.0846702202364025e+00 0 1 1
452 2 3.4691021715820907e+00 1.7280715695895406e+01 6.3346027112782419e+00 0 0 -1
1321 1 6.2547281218708823e+00 1.8561568976589793e+01 5.3117808841980354e+00 0 0 1
1814 2 1.5797551277561904e+01 6.4359541932907778e+00 6.2258067109547612e+00 0 1 1
1184 2 1.3460120464024330e+01 7.2009672654351586e+00 2.4303314125792617e+00 0 0 0
1527 2 6.4299347221113567e+00 9.6960905528982213e+00 3.2474775324735417e+00 0 0 1
1383 2 1.8426521428933068e+01 7.8286351344505505e+00 3.2427384484638883e-01 0 0 0
890 2 3.1990970842871906e+00 8.6602341713351016e+00 4.3346067083987405e-01 0 0 0
650 2 3.4925114417003584e+00 1.8167832516803031e+01 8.1860468299700990e+00 0 -1 0
1536 2 3.9711488589742476e+00 5.9440392236193622e+00 3.0718385636184062e+00 0 -1 0
1085 2 -5.5481159780475520e-03 9.9824182342895789e+00 5.0852635134915785e+00 0 0 0
865 1 7.4981386863131592e+00 6.2618107338130624e-01 7.4563915027523819e+00 0 0 0
682 1 1.8642571504615617e+00 1.7633130254835141e+01 7.9059321051693943e-01 0 -1 0
1314 2 4.4855020553232663e+00 1.8526791263867864e+01 2.4863057559023045e+00 0 -1 1
1525 1 5.6188497179290584e+00 9.9237848582503130e+00 2.6562261807890351e+00 0 0 1
875 2 6.3367398647823716e+00 1.1512116051963096e+01 6.7569535985347962e+00 0 0 0
867 2 6.7953863964333214e+00 1.0823074697305386e+00 7.9835811807724069e+00 0 0 0
284 2 6.0094827884355082e+00 1.5547837952711928e+01 1.3204809702134919e-02 0 -1 0
1147 1 1.5783998506626817e+01 1.5701870504403303e+01 2.6114775315800293e-01 0 0 0
894 2 9.0678037350486722e+00 2.8001263792250222e+00 1.6919824069893916e+00 0 0 0
1827 2 1.8925521249494494e+01 1.8284482810289731e+01 2.4780569007923456e+00 0 0 0
1540 1 2.1994934463500759e+00 1.7463624010182799e+00 1.2587160503704464e+00 0 0 1
1829 2 1.0047580529955152e+01 7.5982851449346107e+00 4.1884306340254920e+00 0 0 0
1831 1 9.1376873621726968e+00 1.8903230408912197e+01 5.0425282623338408e+00 0 -1 0
40 1 7.5098527123610781e+00 1.3089953133173365e+01 9.6447344483247335e+00 0 -1 -1
1801 1 1.8243375360609278e+01 1.4683151305184316e+01 6.7781387251374712e+00 0 1 1
233 2 1.7463429083404858e+01 1.1284124444095935e+01 3.7881883264637648e+00 0 0 -1
921 2 8.1710668477050030e-01 1.1887669206941829e+00 4.1423152477448575e+00 0 1 0
965 2 6.9017774567512040e+00 1.8604719708045369e+01 2.1726917861362218e+00 0 0 0
458 2 1.8004770231766244e+01 1.3374901523027674e+00 9.8973410914427031e+00 0 1 0
1089 2 2.6075143221758545e+00 1.1639369337820368e+01 7.2523774316545113e+00 0 1 0
777 2 1.9948539027136256e+01 5.2457167921249939e+00 9.6055972455845477e+00 0 0 0
968 2 7.4015039299284799e+00 1.3716150173353652e+01 7.9983861054753751e+00 0 0 0
1320 2 5.7698604554811679e+00 2.8714627990577908e+00 9.1045619903955846e+00 0 1 0
1359 2 1.3622354055311602e+01 5.6942823554390698e-01 5.4381536929454679e+00 0 1 0
314 2 1.3335033302164058e+01 1.3320577243065921e+01 4.8757397003277081e+00 0 0 0
667 1 -4.0691504377913551e-02 1.6659833105656602e+01 4.2372138958285861e+00 0 0 0
1819 1 8.2681147597053162e+00 1.6625876206489295e+01 6.4833656520524716e+00 0 0 0
967 1 7.4825563449463619e+00 1.3842541225263233e+01 7.0384663514463366e+00 0 0 0
1825 1 1.7930075347736537e+01 1.8030734568842906e+01 2.5499709430424997e+00 0 0 1
1360 1 8.2416474855202804e+00 7.9564850290691842e+00 7.0191552471022973e+00 0 0 0
1549 1 1.3254940820488923e+01 1.3228728431055746e+01 2.3173666321751325e+00 0 0 1
700 1 4.9653361088854000e+00 8.1217074050290119e+00 8.0367997618175679e-01 0 0 -1
48 2 1.6937119581159847e+00 1.9403434214740525e+01 5.4257157784234202e+00 0 -1 0
1185 2 1.4588238859433268e+01 8.2097193863827176e+00 1.7634082479633073e+00 0 0 0
1136 2 5.9387367766796526e+00 1.0046655245560702e+01 8.5717552407287165e+00 0 1 0
1775 2 8.4617912402752928e+00 1.2415865081894603e+01 6.5009993889962310e+00 0 0 1
1541 2 1.9094058002991856e+00 2.6616502764164163e+00 1.0744055609434198e+00 0 0 1
1309 1 1.7099546228648713e+01 1.8536753518692421e+01 8.4470170844599402e+00 0 0 0
46 1 1.3121076076830178e+00 5.2928571284300396e-01 5.7423994278255703e+00 0 0 0
1542 2 1.5575190174493743e+00 1.4367516411675014e+00 1.9001494238180392e+00 0 0 1
1123 1 1.0599925546419804e+01 3.2657223634602186e+00 6.2530184500655803e+00 0 1 0
265 1 1.6108772328191076e+01 9.2746054616304061e+00 7.3907994598741027e+00 0 0 0
961 1 3.3910205836776122e+00 1.5159770632795768e+01 9.7778737340555324e+00 0 0 0
1774 1 9.0825686827521839e+00 1.1655168950756895e+01 6.3797385135779754e+00 0 0 1
1534 1 4.0787542951242397e+00 5.8693443252120412e+00 2.1116615576418845e+00 0 -1 0
694 1 1.5017732737535336e+01 1.6007486504069945e+01 4.5082241775507317e+00 0 -1 0
305 2 1.1173724768039719e+01 8.6481473815187950e+00 5.8215210709736418e+00 0 1 1
1576 1 1.9513501220966003e+01 6.5678138552009457e+00 5.8374548436094447e+00 0 0 1
25 1 8.0888760487466094e+00 5.7285034330833513e+00 2.9560938117881381e+00 0 0 0
1396 1 1.9665545666522952e+01 1.0639576337719447e+01 6.4070170051426594e+00 0 -1 1
1817 2 1.7412846568047073e+01 6.0815888133132665e+00 3.0942872726205182e+00 0 2 1
1776 2 9.9557120597144042e+00 1.1926131485500658e+01 6.6487885737713661e+00 0 0 1
676 1 1.1884282057563176e+00 7.4619225761045893e+00 5.7864425870748946e+00 0 0 0
51 2 3.4473407056203813e+00 1.2685269282642754e+01 8.7467000196307687e-01 0 -1 0
293 2 1.9657014636122565e+01 1.4701797981479032e+01 4.0510060166188353e+00 0 -1 -1
1526 2 4.8779302246946781e+00 1.0035400747190270e+01 3.2908869716380775e+00 0 0 1
1544 2 4.5193694976736021e+00 1.1891012245671565e+01 8.2834482723402321e+00 0 0 0
219 2 1.2891904107940881e+01 1.3513721517188889e+01 9.2541056355648976e+00 0 0 0
453 2 4.8857129946851048e+00 1.7556485730247235e+01 6.6507990198208953e+00 0 -1 -1
660 2 9.6182674433834237e-01 1.6522487005863415e+01 7.7462331632146952e+00 0 -1 0
263 2 1.1904808702342949e+01 1.6285892222888233e+01 2.6387758103977417e+00 0 0 0
65 2 1.7249334422017746e+01 8.7043718808701307e+00 3.7111314562421942e+00 0 0 -1
456 2 5.8212091641492094e+00 2.9491829842845338e+00 3.6906931049444642e+00 0 1 0
527 2 1.5063951656371032e+01 1.3659750658006365e+01 2.5964976713063832e+00 0 0 0
726 2 1.9047930122478810e+01 2.7549163080579144e+00 7.8537190804798094e+00 0 0 0
1520 2 1.0785305232464065e+01 1.7992576820202157e+01 7.9235363882921979e+00 0 -1 1
1821 2 7.7880614320109638e+00 1.6296712326335161e+01 5.6441357155668959e+00 0 0 0
226 1 1.0367503925430113e-01 1.1754524411150024e+01 2.4486007606803240e+00 0 0 0
228 2 3.6237587827800610e-01 1.1077183540259782e+01 3.0879534967069708e+00 0 0 0
315 2 1.4387074690383304e+01 1.4491560924660634e+01 5.1684608525400897e+00 0 0 0
304 1 1.0263836139076210e+01 8.7501217284407335e+00 5.5092484950635106e+00 0 1 1
319 1 1.0204573154559947e+01 1.1016417004921628e+01 2.9050518665853624e+00 0 -1 1
942 2 1.4767836293709772e+01 1.8967999594343475e+01 2.1621391169938802e+00 0 0 1
1619 2 1.6635258039187537e+01 1.4585190992979833e-02 4.8792568241594063e+00 0 0 0