LAMMPS data file via write_data, version 15 Apr 2020, timestep = 1153000

1920 atoms
2 atom types

1.3902252705870310e-02 2.4710502747301767e+01 xlo xhi
8.4607533935672663e-02 2.4639797466048716e+01 ylo yhi
-4.0330051615336870e-02 2.2832702051623674e+01 zlo zhi
-4.3820456344804093e-01 5.0812481003083880e-02 -8.3960744906455456e-02 xy xz yz

Masses

1 16
2 2

Atoms # atomic

1 1 4.3583358671644357e+00 1.6702617863425759e+00 4.1895669995315741e+00 0 0 0
2 2 5.1528626036293037e+00 1.5361429845617507e+00 3.6788692478359417e+00 0 0 0
3 2 4.4414881611871921e+00 1.0342010713436207e+00 4.9132061975713661e+00 0 0 0
4 1 2.7903297243965319e+00 1.8103268057475383e+00 1.9581674980882593e+00 0 0 0
654 2 7.8656895213649918e+00 1.1407116937374500e+01 6.5121496015833813e+00 0 0 0
6 2 3.1292902213716602e+00 1.6614490893139491e+00 2.8536273846982958e+00 0 0 0
7 1 5.6441160559330834e+00 4.7537019972668730e+00 3.5776936651323332e+00 0 0 0
8 2 4.6475763248613706e+00 4.8022630584575232e+00 3.4216617631399879e+00 0 0 0
9 2 5.9987131443563877e+00 3.9100838897851635e+00 3.8744235369301587e+00 0 0 0
10 1 2.9568091660855385e+00 4.6635807745191054e+00 3.2313183974660626e+00 0 0 0
11 2 2.6350908220390297e+00 3.9575127144052362e+00 3.8416693862937232e+00 0 0 0
12 2 2.6635019442583823e+00 5.5231464542947926e+00 3.6446717776175337e+00 0 0 0
13 1 1.3981580332101762e+00 2.8911942912521420e+00 4.7432598342517860e+00 0 0 0
14 2 1.4699777553161373e+00 1.9251556412180710e+00 4.9364289197836202e+00 0 0 0
15 2 1.1711329564530431e+00 3.3585827229262168e+00 5.5961501738452020e+00 0 0 0
147 2 5.1837649857376977e+00 1.2210040500006080e+01 1.3701938938998377e+00 0 0 0
175 1 1.0633709997649746e+01 1.2177911382133820e+01 8.3265229909813021e-01 0 0 0
19 1 4.8183151848874370e+00 3.4402219378403549e+00 6.0535248798369501e-01 0 0 0
20 2 4.0784120467343996e+00 3.1364929247815350e+00 1.1069392740037292e+00 0 0 0
21 2 4.6687433201775681e+00 4.3995433627699310e+00 5.6091406283042367e-01 0 0 0
22 1 1.2166472880663233e+00 4.4004287713663146e+00 1.1871536620975063e+00 0 0 0
23 2 2.0250634855531788e+00 4.5181798530513415e+00 1.7890838238695921e+00 0 0 0
24 2 1.3489449207198083e+00 3.8095915036940640e+00 4.1288925312573349e-01 0 0 0
25 1 4.4922179861871703e+00 6.1444702498110404e+00 7.0044606237912743e-01 0 0 0
26 2 3.8338181025645661e+00 6.6618878421439094e+00 1.1856165601072266e+00 0 0 0
27 2 4.5339445075950726e+00 6.6200414148526052e+00 2.2762330221724866e+01 0 0 0
1347 2 5.2511626719330833e+00 1.2470478016303789e-01 1.2640565216495748e+01 0 0 0
31 1 1.0627423830377770e+01 1.7361068524002814e+00 4.0585296206526715e+00 0 0 0
32 2 1.0639636353174016e+01 2.4590528194145098e+00 4.7108499958906549e+00 0 0 0
219 2 -4.3178803203836283e-02 1.1457584314067576e+01 4.3032110417045084e+00 0 0 0
34 1 8.9722095771668595e+00 1.7440462067827862e+00 1.8859106493062172e+00 0 0 0
749 2 1.1094954927970355e+00 1.2241775179852667e+01 1.1685897109717125e+01 0 0 0
36 2 9.3849890739245350e+00 2.3617941024739380e+00 1.3404003585629423e+00 0 0 0
218 2 2.9071033123470302e-01 1.0783878191913692e+01 2.9740784681489854e+00 0 0 0
39 2 1.1107708716502239e+01 4.8608260483510053e+00 3.5904162033922464e+00 0 0 0
40 1 9.3379167530060503e+00 4.6380173355356504e+00 3.7653349702663443e+00 0 0 0
41 2 8.8754176988692794e+00 4.6640855967505921e+00 2.9012559719996984e+00 0 0 0
42 2 8.7460763562110433e+00 4.0166744175327658e+00 4.2323393152728794e+00 0 0 0
43 1 7.3007216695291710e+00 2.9592854341674082e+00 4.8252113328501611e+00 0 0 0
44 2 7.3797462268158043e+00 3.2808839193967345e+00 5.7602341303561566e+00 0 0 0
45 2 7.3242882550283994e+00 2.0024934359209929e+00 4.9698403438401160e+00 0 0 0
46 1 6.2059731923995258e+00 1.3299946221033698e+00 2.0019068042071564e+00 0 0 0
47 2 7.2200585914908997e+00 1.4644229373126429e+00 2.0793754506000979e+00 0 0 0
48 2 5.8872556739088333e+00 2.1378394005335402e+00 1.4644137851502197e+00 0 0 0
49 1 1.0860471931250160e+01 3.3967891454124941e+00 6.4664886448791192e-01 0 0 0
50 2 1.1712512502074683e+01 3.0519877989117368e+00 1.0233234585701425e+00 0 0 0
51 2 1.0890669870306787e+01 2.9867318769549773e+00 2.2580058382008076e+01 0 0 0
52 1 7.4495436925936254e+00 4.9530674995701078e+00 1.4754375902832775e+00 0 0 0
53 2 7.7425526967371061e+00 4.2537414596834013e+00 8.4875270540125525e-01 0 0 0
54 2 6.5968024434586603e+00 4.7102636487258485e+00 1.8411405173544411e+00 0 0 0
55 1 1.0764074610107757e+01 6.1984802444158920e+00 6.6780189393720968e-01 0 0 0
56 2 9.8917236228049017e+00 6.3392678901363917e+00 1.0827243349207261e+00 0 0 0
57 2 1.0902089369811890e+01 5.2576144058697372e+00 6.8653855351091697e-01 0 0 0
1018 1 7.8046305785959476e+00 1.7755837247912126e-01 1.6379850991665080e+01 0 0 0
678 2 1.2040701099970279e+01 7.0957521683267464e+00 7.5069892622642067e+00 0 0 0
1608 2 7.3183791392359030e+00 7.7533836687956681e+00 1.9595795409852812e+01 0 0 0
531 2 1.0912755798798047e+01 4.3584612039654838e+00 6.0884631661566955e+00 0 0 0
121 1 4.5415905956482199e+00 7.9936446779589838e+00 4.3369192833655905e+00 0 0 0
122 2 5.1937296472818133e+00 7.8054191858111377e+00 3.5862640822780159e+00 0 0 0
123 2 3.5784567414767330e+00 7.8514142395003956e+00 4.0342303821795831e+00 0 0 0
124 1 2.6694518308389883e+00 7.7167353495840345e+00 2.1932988107171218e+00 0 0 0
125 2 3.0262499921787063e+00 8.4721060236493102e+00 1.7041500517700225e+00 0 0 0
126 2 1.6825618406347800e+00 7.8051268809584480e+00 2.1995995077255084e+00 0 0 0
127 1 5.8179246121290378e+00 1.0864894054498068e+01 3.9218798364250738e+00 0 0 0
128 2 6.2467184091463892e+00 1.0065581926069985e+01 4.3236364428325675e+00 0 0 0
750 2 2.2163095228105902e+00 1.1955109095737138e+01 1.0546656211792435e+01 0 0 0
130 1 3.0321937457764347e+00 1.0579067737984831e+01 3.6860967159702196e+00 0 0 0
131 2 2.7126022989945424e+00 9.7650836300285881e+00 4.1376800766758457e+00 0 0 0
132 2 2.5147849854389506e+00 1.0605214969301191e+01 2.8900486938458627e+00 0 0 0
133 1 1.2829041345592622e+00 8.9540555985693491e+00 5.0146325163582990e+00 0 0 0
134 2 1.5987938325311331e+00 9.2356234219863342e+00 5.9317318669942525e+00 0 0 0
135 2 7.5386906348803340e-01 9.7006840979047091e+00 4.6696155803820698e+00 0 0 0
896 2 1.0833445972246505e+01 6.6697594615906197e-01 5.3752760283586563e+00 0 0 0
139 1 4.2644210148310702e+00 9.2620344188026635e+00 6.5208963745815096e-01 0 0 0
140 2 4.1194729543082609e+00 1.0259597769585035e+01 7.0660838304622064e-01 0 0 0
141 2 5.1586278647968662e+00 9.2324307815640445e+00 9.5034442395909946e-01 0 0 0
142 1 1.2952186488697601e+00 1.0839923030401676e+01 1.4692000605993603e+00 0 0 0
143 2 1.2538734440970789e+00 1.0107164706577818e+01 7.9645734299763438e-01 0 0 0
144 2 1.3059873923883110e+00 1.1601077728502323e+01 8.4632437509333436e-01 0 0 0
867 2 3.6584617544074165e+00 5.3719527272770762e-01 6.8268926283180047e+00 0 0 0
148 1 1.4191364487901876e+00 6.4762015850361081e+00 4.7647116516423873e+00 0 0 0
897 2 1.1650758505492224e+01 3.6116590101510554e-01 6.6612402448308661e+00 0 0 0
150 2 1.2062888865265418e+00 7.4085730500454270e+00 4.8515501494783715e+00 0 0 0
151 1 1.0622337676207398e+01 7.8211445640391304e+00 4.3253754663284560e+00 0 0 0
129 2 4.8067593595658664e+00 1.0702693917147366e+01 3.8328819468182238e+00 0 0 0
153 2 1.0618498997421543e+01 8.6355559245900171e+00 4.8494675059441104e+00 0 0 0
154 1 8.9513322050280841e+00 7.5947943926670627e+00 2.0754007993866472e+00 0 0 0
155 2 9.2672499463936244e+00 8.3688829959548539e+00 1.6133823926944577e+00 0 0 0
156 2 9.3708029035390847e+00 7.6633731210319684e+00 2.9176361180829153e+00 0 0 0
16 1 1.2250299624485785e-01 1.6084702089139462e+00 1.9026861527272436e+00 0 0 0
158 2 1.1115312001083899e+01 1.1361629013305320e+01 3.5989268312345906e+00 0 0 0
160 1 9.3192485591036025e+00 1.0636708150432076e+01 3.5250082510664962e+00 0 0 0
161 2 8.8673753134119906e+00 1.0637464705688325e+01 2.6733258501240162e+00 0 0 0
990 2 7.8166318664294743e-01 2.0979757631850635e-01 1.6237400337759055e+01 0 1 0
163 1 7.5327096613048248e+00 9.1033584598921546e+00 5.0640865093525891e+00 0 0 0
164 2 7.6146314817645253e+00 8.0734879286681949e+00 4.9641895382920591e+00 0 0 0
165 2 8.3478093255965575e+00 9.4207302595045004e+00 4.5969333548060591e+00 0 0 0
166 1 6.2412868080011661e+00 8.0116244736472844e+00 1.9993565426913555e+00 0 0 0
167 2 5.9608200443742936e+00 7.2004263730008695e+00 1.5258080434808674e+00 0 0 0
168 2 7.1980342788297742e+00 7.8699377272267741e+00 2.1151503850433304e+00 0 0 0
169 1 1.0554267350375536e+01 9.5699278663920584e+00 8.2782416843789286e-01 0 0 0
170 2 1.0486527449541299e+01 1.0503151918821619e+01 6.2735761265270862e-01 0 0 0
171 2 1.0717400790439363e+01 9.0016599429967030e+00 2.2808528960599872e+01 0 0 0
172 1 7.3875117375777748e+00 1.0931158536466516e+01 1.7000420369608609e+00 0 0 0
1597 1 1.1871270488314519e+01 1.0841243919956151e+01 2.0740967886884491e+01 0 0 0
174 2 7.4442272497546007e+00 1.0113654861418178e+01 1.1867310699247096e+00 0 0 0
197 2 1.1809488966094881e+01 8.6893905550424986e+00 1.8326489296970880e+00 0 0 0
178 1 7.7666311782954391e+00 6.4099619578300580e+00 4.9359478724859684e+00 0 0 0
179 2 6.9742481675819974e+00 6.0158363608191365e+00 4.5673829276068272e+00 0 0 0
180 2 8.5182939608669894e+00 5.9772673097460318e+00 4.4565004487435527e+00 0 0 0
1058 2 6.2341833642291018e-02 4.0122085498804623e+00 1.5457318396368709e+01 1 0 0
1259 2 8.2997955290986383e+00 1.1971340799415536e+01 1.5858481774937342e+01 0 0 0
1585 1 4.0686262818197312e+00 1.1943837711042896e+01 1.8274047770325893e+01 0 0 0
1589 2 6.3152436191756900e-01 6.0902650716209283e+00 2.1940798928131478e+01 0 0 0
1619 2 7.7157728751569357e+00 6.0024161741658606e+00 2.2802353805065536e+01 0 0 0
495 2 6.1775110857396132e-01 3.3576174946765862e+00 1.0200187931528431e+01 0 0 0
1618 1 7.8364695390670738e+00 6.3689134159688994e+00 2.1916609765381814e+01 0 0 0
1615 1 1.0769248059484410e+01 1.2087454066596434e+01 1.7918510984023669e+01 0 0 0
508 1 1.6026824881271247e+00 3.1741957763084017e-01 1.0528368149621492e+01 0 0 0
481 1 4.3029824256892164e+00 1.6772548924562058e+00 9.7273948795514187e+00 0 0 0
482 2 4.4252859501569377e+00 1.0151144632950135e+00 1.0403008222584281e+01 0 0 0
483 2 5.1570900823682688e+00 1.6469884563591393e+00 9.1924062322515230e+00 0 0 0
484 1 2.6000466688146830e+00 1.8591156594681029e+00 7.6181404092708851e+00 0 0 0
485 2 2.9816951618418668e+00 1.8307616964802365e+00 8.5738345244563803e+00 0 0 0
486 2 1.6252803716265904e+00 2.0209082051748215e+00 7.7104487749615602e+00 0 0 0
487 1 6.1277489881838827e+00 4.8969157143517208e+00 9.1556849814111203e+00 0 0 0
488 2 5.1292981903547172e+00 4.8186788136773213e+00 9.1167001743192202e+00 0 0 0
489 2 6.5854699330030195e+00 4.1718835828550187e+00 9.6089104552659617e+00 0 0 0
490 1 3.3054873570916277e+00 4.7925475474201846e+00 9.1088671874927236e+00 0 0 0
491 2 2.8601460949666455e+00 4.0582423524523303e+00 9.5793314257403424e+00 0 0 0
492 2 2.8792437830169892e+00 5.5677565405630371e+00 9.5877889749123781e+00 0 0 0
493 1 1.4720806315125385e+00 3.0658534404425306e+00 1.0534141216344473e+01 0 0 0
494 2 1.4474474182973667e+00 3.3793694091970461e+00 1.1449711349223527e+01 0 0 0
1605 2 6.9987320217380420e+00 9.4461958790445699e+00 2.1838008946805452e+01 0 0 0
1613 2 7.6218358237167996e+00 1.1347039149906223e+01 1.8286913492462183e+01 0 0 0
499 1 4.6344218005200313e+00 3.4620945503749341e+00 6.4652695786746390e+00 0 0 0
500 2 3.7852966701378414e+00 3.1436298589493266e+00 6.7212824658730117e+00 0 0 0
501 2 4.7219202921239569e+00 3.1461499184401647e+00 5.5372333389526425e+00 0 0 0
502 1 1.1638057410873848e+00 4.6575265429674602e+00 6.8792355789184665e+00 0 0 0
503 2 1.8945569289849098e+00 4.7565377130243061e+00 7.4931987199474817e+00 0 0 0
504 2 1.3172576572382317e+00 5.3073778907928650e+00 6.1912222735636844e+00 0 0 0
505 1 4.5241011970665745e+00 6.1021524264381410e+00 6.3919355026562465e+00 0 0 0
506 2 4.7306275796454642e+00 5.1476032840925203e+00 6.3203379502829211e+00 0 0 0
507 2 4.7144983757718437e+00 6.5164996815450857e+00 5.5579654238489669e+00 0 0 0
5 2 3.1794906041346285e+00 1.1215879014402537e+00 1.4022676869290043e+00 0 0 0
509 2 1.7193588333661045e+00 1.2848900325935502e+00 1.0563417663541294e+01 0 0 0
511 1 1.1017994284630770e+01 1.4034426102390958e+00 9.6714912633234373e+00 0 0 0
512 2 1.0946447654298174e+01 7.4243661271052219e-01 1.0378920229497364e+01 0 0 0
513 2 1.0267760248895922e+01 1.3382616233503790e+00 9.0711770594676331e+00 0 0 0
514 1 9.1494611741541298e+00 1.4494073144038198e+00 7.6907985414905173e+00 0 0 0
515 2 8.1739943341829537e+00 1.4936619845116861e+00 7.8280799737610698e+00 0 0 0
1571 2 2.5543343177078772e+00 1.1509021514024267e+01 2.1479815443026276e+01 0 0 0
269 2 2.1416596869606810e+00 1.2182683541170986e+01 4.5518608895123300e+00 0 0 0
520 1 9.6385291351612388e+00 4.9803645022707927e+00 9.3425003192101208e+00 0 0 0
521 2 1.0635371111130771e+01 5.0442906298714059e+00 9.3451710101723702e+00 0 0 0
522 2 9.3471648687508395e+00 5.0776984666798537e+00 8.4316182994548257e+00 0 0 0
523 1 7.7704805301215538e+00 3.1153470271206749e+00 1.0279684345569692e+01 0 0 0
524 2 7.7491611776816214e+00 2.1321623031144683e+00 1.0261225582254589e+01 0 0 0
525 2 8.5059216448048467e+00 3.5562525845241058e+00 9.7939231817498094e+00 0 0 0
526 1 6.3561438341325109e+00 1.6442214001818438e+00 7.7511154194515948e+00 0 0 0
527 2 5.8843469766271141e+00 1.0489741126236063e+00 7.1598492865025971e+00 0 0 0
1576 1 3.8019862990602886e-02 7.9036090546981326e+00 1.9343190815561684e+01 0 0 0
529 1 1.0981058567772838e+01 3.3576667277500918e+00 6.2354010036615994e+00 0 0 0
530 2 1.0080837160370105e+01 3.1799580874746773e+00 6.4403356665036302e+00 0 0 0
415 1 1.0967515631816317e+01 1.6025981190733496e-01 1.0268458922580808e+00 0 1 0
532 1 7.9583608620187025e+00 4.4927436697395224e+00 6.8816036619651415e+00 0 0 0
533 2 7.9411784587227761e+00 5.3352333885916554e+00 6.3453885209822154e+00 0 0 0
534 2 7.1691552826866065e+00 4.6241358939532935e+00 7.5008800306994461e+00 0 0 0
535 1 1.0698745114992459e+01 6.2086949841303403e+00 6.4786488864994505e+00 0 0 0
536 2 1.0012847936452994e+01 6.8349203512018821e+00 6.7709737647359196e+00 0 0 0
1464 2 5.7324090902179248e-01 4.9228334055572933e+00 1.8950541650860714e+01 0 0 0
1607 2 5.9441862901536915e+00 7.9798401957830789e+00 2.0278345723354732e+01 0 0 0
538 1 7.5417978102715093e+00 4.0256070174869352e-01 1.0507013997347391e+01 0 0 0
1472 2 1.1642633327423772e+01 1.2602180370573950e+00 2.0829842789034586e+01 0 0 0
677 2 1.2129590616118209e+01 8.6233348534617011e+00 7.4391319279868799e+00 0 0 0
1612 1 7.4815639132084053e+00 1.0569752625479671e+01 1.8912319478707452e+01 0 0 0
601 1 4.3013639683683493e+00 7.7054687617183895e+00 1.0076603787039023e+01 0 0 0
602 2 5.0386174307576308e+00 7.6236049771054786e+00 9.4596400686364195e+00 0 0 0
603 2 4.5180938200245127e+00 8.5480385892205266e+00 1.0601766036316631e+01 0 0 0
604 1 2.8513791101267811e+00 7.7843768535643321e+00 7.9865931154547383e+00 0 0 0
605 2 3.1746458398744952e+00 7.7128899776637692e+00 8.9126264901944356e+00 0 0 0
606 2 3.0867741741424624e+00 7.0182166953201639e+00 7.4480853747558449e+00 0 0 0
607 1 5.6149711025255886e+00 1.0725113463969409e+01 9.0453199148157104e+00 0 0 0
608 2 6.0971267119217387e+00 1.0872574028449447e+01 8.2444153846225650e+00 0 0 0
609 2 6.1299422918375814e+00 1.0061551053166687e+01 9.4725200046748501e+00 0 0 0
610 1 2.9814280691984014e+00 1.0646423171775528e+01 9.3235737728951129e+00 0 0 0
611 2 2.4931276692984023e+00 1.0617301799679412e+01 8.4723046480629147e+00 0 0 0
612 2 3.9562886367555032e+00 1.0644013247510228e+01 9.1838157362560118e+00 0 0 0
613 1 1.3922907367274380e+00 8.9858355241116605e+00 1.0797396807334831e+01 0 0 0
1539 2 2.6632154277888381e-01 3.7894455308767521e+00 2.1279369842496585e+01 0 0 0
615 2 2.2032630335821497e+00 9.4178521519610943e+00 1.0385143488193842e+01 0 0 0
1092 2 2.7086328162529969e+00 1.0640248577923959e+01 1.4304924606977368e+01 0 0 0
618 2 1.0171049418943301e+00 7.7612711586105529e+00 8.0746441188108378e+00 0 0 0
619 1 4.3210168336573984e+00 9.5663557741851299e+00 6.5059820583278558e+00 0 0 0
620 2 4.3308929086744996e+00 9.0281067705901563e+00 5.7201316783443170e+00 0 0 0
621 2 3.6590933121633333e+00 9.0600746955952047e+00 7.0516699675438144e+00 0 0 0
622 1 1.4263383944174581e+00 1.0716944704998671e+01 7.1498522400567133e+00 0 0 0
623 2 5.9229411297005574e-01 1.0834721976126584e+01 7.6167476944770405e+00 0 0 0
624 2 1.4281458943228560e+00 1.1400281641011590e+01 6.4467905907210694e+00 0 0 0
1038 2 1.2107494345366897e+01 1.0996648681828485e+00 1.4185115891610412e+01 0 0 0
626 2 4.2792477069911437e+00 1.1181352517378082e+01 6.5182238891912787e+00 0 0 0
628 1 1.3626425247840888e+00 6.3776220504500065e+00 1.0634989982887662e+01 0 0 0
629 2 1.3416929672834796e+00 6.0013477814872118e+00 1.1494590690669328e+01 0 0 0
630 2 1.5044166533461871e+00 7.3424097717824468e+00 1.0711032790547524e+01 0 0 0
631 1 1.0602493393616244e+01 7.8930537283914353e+00 1.0015596147517089e+01 0 0 0
632 2 1.0652286091894711e+01 7.1367083652506169e+00 1.0591097709579435e+01 0 0 0
633 2 1.1316984677464697e+01 7.9134925012625752e+00 9.3425485026140223e+00 0 0 0
634 1 9.0001283007003217e+00 7.8147077236766691e+00 7.7291227291877433e+00 0 0 0
635 2 9.2836858899804149e+00 7.9301012847307772e+00 8.6589893029541010e+00 0 0 0
636 2 8.0430212583244476e+00 7.7513681284560700e+00 7.7603777704237835e+00 0 0 0
1442 2 4.4660710253091427e+00 1.0179282992704852e+00 2.1999351339044601e+01 0 0 0
639 2 1.1055584603919190e+01 1.0530136403551433e+01 9.2901945063708737e+00 0 0 0
640 1 9.0946867001811604e+00 1.0760661770657773e+01 9.3957962710000338e+00 0 0 0
641 2 8.6994750711934898e+00 1.0619107877130700e+01 8.5314808943923524e+00 0 0 0
642 2 8.7453121888648173e+00 1.0021902741860112e+01 9.9184078330566887e+00 0 0 0
643 1 7.3097401620031182e+00 9.1302228728134889e+00 1.0492517284312628e+01 0 0 0
644 2 7.4820503518963379e+00 8.1912827388683702e+00 1.0707282779351459e+01 0 0 0
645 2 7.0309289311740235e+00 9.6012186290090060e+00 1.1289583716457223e+01 0 0 0
646 1 6.1403109320849465e+00 7.8554959324222269e+00 7.9312207474882808e+00 0 0 0
647 2 5.5826251375515143e+00 7.3507543047237114e+00 7.2671682932912587e+00 0 0 0
648 2 5.9610743370808104e+00 8.7851380389194258e+00 7.7689290658526780e+00 0 0 0
649 1 1.0642518109821475e+01 9.4721258545543563e+00 6.4112196709027263e+00 0 0 0
650 2 1.0427907278402877e+01 1.0462136869285455e+01 6.4549118515305777e+00 0 0 0
651 2 9.8359837132374626e+00 9.0108836053874288e+00 6.8533141322934901e+00 0 0 0
652 1 7.6280471576878650e+00 1.0749368490641146e+01 7.2356996901653599e+00 0 0 0
653 2 7.5458281454470360e+00 9.9953575416394607e+00 6.6431638453796564e+00 0 0 0
1230 2 2.3343709588267432e+00 1.2114103938890354e+01 1.5967149096788349e+01 0 0 0
1089 2 4.8926235172362684e+00 1.0660408185612848e+01 1.4987469721541293e+01 0 0 0
658 1 7.6319658039239435e+00 6.3408005667767133e+00 1.0884485968502936e+01 0 0 0
659 2 6.9867140586232122e+00 6.0656599701268261e+00 1.0128818716617284e+01 0 0 0
660 2 8.4238929458571352e+00 5.8720502977717741e+00 1.0578812665765318e+01 0 0 0
1610 2 1.0795186725761118e+01 8.9414787475165625e+00 1.7058906190762926e+01 0 0 0
1604 2 8.4758143778007806e+00 9.3822793121947701e+00 2.1879088743595084e+01 0 0 0
779 2 8.2617049726864629e+00 1.2016734010464740e+01 9.9564585028434625e+00 0 0 0
416 2 1.0880228851160037e+01 3.8737568986886178e-01 8.9411077921243143e-02 0 0 1
1614 2 8.3215370176783239e+00 1.0557847053090285e+01 1.9426039885290052e+01 0 0 0
1611 2 1.1613392551031803e+01 8.8506043766043572e+00 1.8317466890826282e+01 0 0 0
417 2 1.0231824339475800e+01 5.9679666806779397e-01 1.4936656968020998e+00 0 0 0
1616 2 1.1009691619468805e+01 1.1149022016931545e+01 1.7799412958847356e+01 0 0 0
1133 2 7.4427981538401209e+00 1.1740632529319207e+01 1.2311432534990768e+01 0 0 0
145 1 4.4122611645613574e+00 1.1925984077174375e+01 8.3061583346425105e-01 0 0 0
961 1 4.7219593187549567e+00 1.5527669946805434e+00 1.5765287520595347e+01 0 0 0
962 2 4.8368827556623906e+00 2.4081356454870946e+00 1.6223618016022343e+01 0 0 0
58 1 7.7515634426530742e+00 2.6237971770761559e-01 5.0367656162746464e+00 0 0 0
964 1 2.7636216389490116e+00 1.4039089854045375e+00 1.3893853377496104e+01 0 0 0
965 2 3.3713841065357748e+00 1.4885486363661153e+00 1.4672068150145929e+01 0 0 0
966 2 2.9727867165477941e+00 2.2407915762866097e+00 1.3409025266386564e+01 0 0 0
967 1 6.1043421785521907e+00 4.5768487174905825e+00 1.4825446679160370e+01 0 0 0
968 2 6.3752361433557967e+00 5.3879752985360083e+00 1.5255655653730736e+01 0 0 0
969 2 6.7113706667056787e+00 4.5018914224510196e+00 1.4068232628075680e+01 0 0 0
970 1 3.3205185718744930e+00 4.6897195588275009e+00 1.4990373277859087e+01 0 0 0
971 2 4.2428382384951639e+00 4.8319283197014000e+00 1.4997276178327240e+01 0 0 0
972 2 2.7326848171145759e+00 5.3596163018151683e+00 1.5469261823068932e+01 0 0 0
973 1 1.5639827367015358e+00 3.1361595783073999e+00 1.6215505961015836e+01 0 0 0
974 2 2.2748380256358969e+00 3.5811589205609473e+00 1.5651571371615066e+01 0 0 0
975 2 1.4689469853383703e+00 3.7064479896189559e+00 1.7045602558933190e+01 0 0 0
1178 2 2.1045616419305035e-01 1.1738014174918449e+01 1.5232042210881962e+01 0 0 0
977 2 9.8920815078946378e-01 1.3757481739881121e+00 1.3709815587063398e+01 0 0 0
979 1 4.2266919013454949e+00 3.3108072314031700e+00 1.2210233217130918e+01 0 0 0
980 2 4.2877574446903104e+00 2.7931350500385044e+00 1.1378672426106521e+01 0 0 0
981 2 5.0506713373865253e+00 3.1787067109824521e+00 1.2753516501472232e+01 0 0 0
982 1 1.4342426364932459e+00 4.7594245901678107e+00 1.2788193949637547e+01 0 0 0
983 2 2.2407304819724612e+00 4.6798916781512805e+00 1.3322352545181056e+01 0 0 0
984 2 6.9820202436592316e-01 4.7430937435563152e+00 1.3406268661220770e+01 0 0 0
985 1 4.5123873533279486e+00 6.1854349478407595e+00 1.2220789835606741e+01 0 0 0
986 2 4.3742860579616760e+00 6.4642493434997510e+00 1.1324205722766980e+01 0 0 0
987 2 4.4091346277390597e+00 5.1982546000923389e+00 1.2235082067016732e+01 0 0 0
17 2 1.0809946729167261e+00 1.7848966741231824e+00 1.9424365003734596e+00 0 0 0
989 2 1.5857931669574976e+00 1.4993276866235790e+00 1.6578015166430340e+01 0 0 0
991 1 1.0908809311201441e+01 1.5286007199555496e+00 1.5479274047448580e+01 0 0 0
992 2 1.0886317753098053e+01 7.7813991043258857e-01 1.6087347551778137e+01 0 0 0
993 2 1.0112156268818527e+01 1.4048145331280417e+00 1.4919154393095335e+01 0 0 0
994 1 9.0661214672291912e+00 1.3198435934148589e+00 1.3434783006262425e+01 0 0 0
995 2 9.4399590076406277e+00 6.2184816153371325e-01 1.2869792282535657e+01 0 0 0
996 2 9.5186291592048384e+00 2.1148246272498699e+00 1.3090967610604778e+01 0 0 0
1468 1 1.3904631344812333e+00 3.7998248520429218e-01 2.2279920932209293e+01 0 0 0
998 2 1.1273184310132169e+01 4.4221637815161809e+00 1.4617390085224500e+01 0 0 0
1000 1 9.7322552835963769e+00 4.0451553828544196e+00 1.4528917531801207e+01 0 0 0
1001 2 9.2211107711227864e+00 3.5154358882291099e+00 1.5195279011838267e+01 0 0 0
1002 2 9.1228773844564799e+00 4.1783175462553528e+00 1.3802970086755094e+01 0 0 0
1003 1 7.8276979068411165e+00 2.8360350846437710e+00 1.6067290283708964e+01 0 0 0
1004 2 7.2628955560642199e+00 3.4667028438139922e+00 1.5569653673526899e+01 0 0 0
1005 2 7.7452180986531696e+00 3.2690659021002961e+00 1.6925680265971351e+01 0 0 0
1006 1 6.4221373721829877e+00 1.6627015830114962e+00 1.3491958339069379e+01 0 0 0
1007 2 6.1184975653495934e+00 1.7498339576725017e+00 1.4408688508142827e+01 0 0 0
1008 2 7.4034017237078142e+00 1.6303949247035134e+00 1.3551112911337786e+01 0 0 0
1009 1 1.0815525453357358e+01 3.2906975246026215e+00 1.1693643716048681e+01 0 0 0
1010 2 1.1553522204001817e+01 2.8349160860970972e+00 1.2129924076938030e+01 0 0 0
1011 2 1.0817447982342708e+01 2.9186819488788855e+00 1.0766247837247072e+01 0 0 0
1012 1 7.6193083841853255e+00 4.2740212898421213e+00 1.2755038832676188e+01 0 0 0
1013 2 7.7206877479847345e+00 3.5522992474355015e+00 1.2061945269851567e+01 0 0 0
1014 2 7.6237009633443238e+00 5.1105357297513239e+00 1.2198146018840930e+01 0 0 0
1015 1 1.0955031748373203e+01 6.1577727165938274e+00 1.2093843790338472e+01 0 0 0
1016 2 1.1088155209927539e+01 5.1819090722639807e+00 1.2094461226415110e+01 0 0 0
1017 2 1.1699457339367557e+01 6.5447900654081836e+00 1.2742930428474700e+01 0 0 0
780 2 6.7431445051235013e+00 1.2311557597849282e+01 9.9856871827636784e+00 0 0 0
1019 2 7.8063738209410234e+00 1.1875915695531136e+00 1.6253111530740313e+01 0 0 0
1109 2 5.4133141339859114e-01 6.0414952384948490e+00 1.5778462114921521e+01 0 0 0
1602 2 9.0563549046865521e+00 1.1319451306365261e+01 2.1545437143396889e+01 0 0 0
1081 1 4.5883494317400872e+00 7.5522873086226108e+00 1.5654660671631465e+01 0 0 0
1082 2 5.3649752472863694e+00 7.7152818097722964e+00 1.5069298078021196e+01 0 0 0
1083 2 4.8277770597543865e+00 6.8905437945535057e+00 1.6334486723782113e+01 0 0 0
1084 1 2.7896633018758119e+00 7.7595660464016118e+00 1.3574212625832544e+01 0 0 0
1085 2 3.2887123833349516e+00 7.8047013066146267e+00 1.4419668702549670e+01 0 0 0
1086 2 3.1267956310738425e+00 7.0587685571932637e+00 1.2931851598066837e+01 0 0 0
1087 1 5.8635831097370916e+00 1.0589470176340814e+01 1.4939264577983133e+01 0 0 0
1088 2 6.1151858967394412e+00 9.9650238381564584e+00 1.5621495169405311e+01 0 0 0
997 1 1.2211384583922696e+01 4.5439881788111398e+00 1.4835912590017278e+01 0 0 0
1090 1 3.1451543273913671e+00 1.0731350873253236e+01 1.5174726336238935e+01 0 0 0
1091 2 2.7342709844938735e+00 1.0011362897437806e+01 1.5660016676564391e+01 0 0 0
1739 2 7.1053158688920748e+00 1.1982612734399915e+01 2.1790797451243364e+01 0 0 0
1093 1 1.5462077424376584e+00 9.2534395889726717e+00 1.6538752397888302e+01 0 0 0
1094 2 1.3664871801420864e+00 8.2766859371165431e+00 1.6453166339791871e+01 0 0 0
1095 2 8.2306913418903893e-01 9.6807655979282643e+00 1.6033609354540729e+01 0 0 0
1498 1 7.6789111905668097e+00 1.8093932251359657e-01 2.2021003637523300e+01 0 0 0
1097 2 1.0046124451502769e+00 7.5119835829842811e+00 1.3575355885685843e+01 0 0 0
1099 1 4.3352724349523148e+00 9.5189416337465165e+00 1.2086362893372414e+01 0 0 0
1100 2 3.5818896072997819e+00 9.1806341282655826e+00 1.2589149429459651e+01 0 0 0
1101 2 4.3145778704752598e+00 1.0497197182327454e+01 1.2206001865174228e+01 0 0 0
1102 1 1.4923336888162542e+00 1.0679001598685034e+01 1.2809132392332227e+01 0 0 0
1103 2 1.3775561627152286e+00 1.0043500314803410e+01 1.2093921941098294e+01 0 0 0
1104 2 8.5130536705264026e-01 1.0453693859001643e+01 1.3528344811090443e+01 0 0 0
699 2 8.9482427150134186e-02 1.1506776136842081e+01 9.8291245271213796e+00 0 0 0
1108 1 1.3059150591666222e+00 6.4704085755565623e+00 1.6245917376713550e+01 0 0 0
37 1 1.2082811275360935e+01 4.7210323995149537e+00 3.5871107925896473e+00 0 0 0
1110 2 1.3336625503640531e+00 6.0663042827329869e+00 1.7138522036937907e+01 0 0 0
1111 1 1.0949932775981729e+01 7.6901416336327149e+00 1.5722683006362422e+01 0 0 0
1112 2 1.1671299113522711e+01 7.6224474831847111e+00 1.5004896074745435e+01 0 0 0
1113 2 1.0145529357488170e+01 7.6860152991530706e+00 1.5195837035662553e+01 0 0 0
1114 1 9.0504285040595747e+00 7.5599890857817718e+00 1.3646280002874937e+01 0 0 0
1115 2 9.5094157613912067e+00 6.8547540575349233e+00 1.3165208345082572e+01 0 0 0
1116 2 8.0860277580527544e+00 7.7036387075587243e+00 1.3345115352045070e+01 0 0 0
33 2 1.1535360819722296e+01 1.7617943991389500e+00 3.6482689377551605e+00 0 0 0
1120 1 9.1210973872813170e+00 1.0695658162969870e+01 1.4969315000485915e+01 0 0 0
1121 2 8.6163993945033983e+00 1.0775418863823507e+01 1.4125183614712865e+01 0 0 0
1122 2 1.0095417397860773e+01 1.0759926347817046e+01 1.4824350543861208e+01 0 0 0
1123 1 7.7045543956187093e+00 9.0445181823821521e+00 1.6693317665428665e+01 0 0 0
1124 2 8.4096866509018682e+00 9.5331513556053959e+00 1.6202232855256973e+01 0 0 0
1125 2 7.7875803325236390e+00 9.2409489843944659e+00 1.7610326419809859e+01 0 0 0
1126 1 6.2635849198813256e+00 7.9167218516624320e+00 1.3425588968578060e+01 0 0 0
1127 2 5.9132229528594378e+00 7.1820590381121292e+00 1.2854525016012511e+01 0 0 0
1128 2 5.7976359741372168e+00 8.7397564355271253e+00 1.3208793853276758e+01 0 0 0
1129 1 1.0842680143036524e+01 9.3236776573158231e+00 1.2305052194271564e+01 0 0 0
1130 2 1.0008983446882295e+01 8.9558074029327877e+00 1.2637908712329084e+01 0 0 0
1131 2 1.0841221628718170e+01 8.9943496723395899e+00 1.1382015679837169e+01 0 0 0
1132 1 7.4558612086404139e+00 1.0923903168536224e+01 1.2821914167406161e+01 0 0 0
35 2 9.4412103925640487e+00 1.9058718365977974e+00 2.7431690422985850e+00 0 0 0
1134 2 6.7149081157789565e+00 1.0817029793309494e+01 1.3397871481184637e+01 0 0 0
1826 2 5.6689782141857403e+00 4.7830319727491066e-01 1.8059032428346086e+01 0 0 0
1137 2 1.0874019841506552e+01 1.1001914920072119e+01 1.1810299688544351e+01 0 0 0
1138 1 7.5207286803029314e+00 6.4846040420340323e+00 1.6200007990396806e+01 0 0 0
1139 2 7.5348142416952175e+00 7.3308070424177840e+00 1.6603244272303485e+01 0 0 0
1140 2 8.0668055389790609e+00 6.5774746102902180e+00 1.5419372285662822e+01 0 0 0
99 2 8.6931865318927645e-02 4.0423886597487151e+00 3.8920588609373290e+00 0 0 0
578 2 1.4519558860520279e-01 5.4208956012605203e+00 9.8097437678220079e+00 0 0 0
976 1 7.2459259105376331e-02 1.4913938307574854e+00 1.3476881337922705e+01 0 0 0
616 1 8.2141259994667967e-02 7.8007143435767849e+00 7.8636002578042952e+00 0 0 0
162 2 8.9283406487961710e+00 1.1409438711105000e+01 4.0328967863344536e+00 0 0 0
637 1 1.1954944152440735e+01 1.0729653933515758e+01 9.3850088842929171e+00 0 0 0
1606 1 6.3729961697379238e+00 7.7785522841190708e+00 1.9410344539091469e+01 0 0 0
655 1 1.0473828917742752e+01 1.2211399418438885e+01 6.7018714736178477e+00 0 0 0
537 2 1.0822530684173124e+01 6.5322628158432590e+00 5.5627528703882145e+00 0 0 0
1441 1 4.5820561473238133e+00 1.6365998037812817e+00 2.1292712793933610e+01 0 0 0
1477 1 1.1970209797119175e+01 4.5439180747203451e+00 2.0687160345501347e+01 0 0 0
1443 2 4.8414422923776250e+00 2.4086160075889222e+00 2.1782512852540755e+01 0 0 0