LAMMPS data file via write_data, version 15 Apr 2020, timestep = 0

6144 atoms
2 atom types

-1.7009556891021127e+00 6.1669244820285783e+01 xlo xhi
0.0000000000000000e+00 2.8124954380965058e+01 ylo yhi
0.0000000000000000e+00 2.7184349534802010e+01 zlo zhi
1.0162316232391220e+01 1.0187207253202587e+01 7.1202841745247056e+00 xy xz yz

Masses

1 16
2 2

Atoms # atomic

1595 2 1.8587073402726482e+01 2.0650312831864991e+01 1.5027681361933809e+01 0 0 0
1604 2 1.6594993085597665e+01 2.2683967617968683e+01 2.4088677743759344e+01 0 0 0
1917 2 1.2431631773195164e+01 2.4849912636662449e+01 1.6720718562556101e+01 0 0 0
987 2 1.5088330768190541e+01 1.1478180615577198e+01 2.3728418292778674e+01 0 0 0
225 2 2.3147343782613191e+01 2.9077982589830132e+01 6.3072576455828839e+00 0 -1 0
52 1 1.6952842086397371e+01 2.6797839710884272e+01 1.1851150290441499e+01 0 -1 0
25 1 1.0750590892794662e+01 1.1134790248496222e+01 1.1982574347928399e+01 0 0 -1
1625 2 1.3582672518353277e+01 2.1146060275142208e+01 1.8910562347777908e+01 0 0 0
2464 1 9.1686038891473345e+00 1.7351558394871493e+01 7.0513277680435946e+00 0 1 0
886 1 1.6313835406220779e+01 2.0706040283121716e+01 1.9870928644663270e+01 0 1 -1
1633 1 1.5615732243845972e+01 1.9226731269041561e+01 2.1864136274214339e+01 0 0 0
849 2 1.4433888207376828e+01 1.8279861093588821e+01 7.5650508997954109e+00 0 0 -1
2443 1 1.0600791630561263e+01 1.0572674096739323e+01 8.2041392263279427e+00 0 1 0
358 1 1.9560271835916851e+01 2.4761352263409883e+01 2.3008172903765896e+01 0 0 0
2466 2 9.4913900736564649e+00 1.7901025802810228e+01 7.8030722552091278e+00 0 1 0
1895 2 1.1086278792182956e+01 1.3215277913577161e+01 9.4332168065123465e+00 0 0 1
1670 2 6.5747476634612525e+00 5.1172653937016896e+00 6.5311072568202810e-01 0 0 0
1634 2 1.6076699136290159e+01 1.9749450033734757e+01 2.1178757276573492e+01 0 0 0
1064 2 1.3484762343522736e+01 6.4935643614012477e+00 2.2702123629325023e+01 0 1 -1
1894 1 1.1984212814517877e+01 1.2724809088205825e+01 9.2277840215218774e+00 0 0 1
1740 2 6.2027442556287156e+00 1.5560377562453660e+01 3.7451231241393429e-01 0 0 1
1916 2 1.3228817551837825e+01 2.3684793885364080e+01 1.6131717129181087e+01 0 0 0
611 2 8.5436116124332280e+00 4.5148453823779384e+00 1.2918906981200468e+01 0 1 0
1709 2 2.1724661893350618e+01 3.2348596311811818e+01 1.7279624624881905e+01 0 -1 0
487 1 1.7052049047988429e+01 2.5661072693902870e+01 2.3991191720645801e+01 0 0 -1
53 2 1.7149598048152473e+01 2.7113651309959764e+01 1.0949859417939713e+01 0 -1 0
1587 2 1.2563176359981655e+01 1.4002533408634994e+01 1.1794654516962503e+01 0 0 0
1586 2 1.1889027740486586e+01 1.4636510890978531e+01 1.3033046078941393e+01 0 0 0
1675 1 1.0862828146193531e+01 1.6861130969822071e+01 1.7622031688734943e+01 0 0 0
2564 2 1.2245319418221762e+01 1.0826638230945072e+01 1.1671261235207837e+00 0 1 0
15 2 4.5050803809926494e+00 7.9380722414385314e+00 5.2260566970214768e+00 0 0 0
1871 2 1.5472407438071709e+01 2.4775794061738967e+01 1.8103889834034081e+01 0 0 0
610 1 8.5424150934217380e+00 4.6610297884832645e+00 1.3882233098509383e+01 0 1 0
1275 2 9.4270529564927088e+00 6.2906592579138065e+00 1.4281704671970870e+00 0 0 0
2450 2 1.5546478078062403e+01 2.4629888935497327e+01 2.3536477135424352e+01 0 0 0
112 1 1.5761773598732521e+01 3.0890619586838866e+01 2.0637740730412599e+01 0 -1 0
1708 1 2.1885456723387282e+01 3.1768222335656837e+01 1.6493403579799928e+01 0 -1 0
27 2 1.0507098138493200e+01 1.1496683321514167e+01 1.2868355723582496e+01 0 0 -1
907 1 1.9320110014374375e+01 3.0835914644992510e+01 2.1771114991085746e+01 0 0 -1
99 2 1.0624547437184178e+01 7.6584985718397123e+00 2.7467122178896721e+00 0 0 0
1561 1 1.0175408620290778e+01 1.7213894742378226e+01 1.3220955013716926e+01 0 0 0
1901 2 9.5990184840107720e+00 9.1031255846323749e+00 2.4923308238447824e+01 0 0 0
174 2 2.0528655883292615e+01 8.6245905906371263e+00 2.1334880423893576e+01 0 0 -1
1521 2 1.4046945149200100e+01 1.4075394035945139e+01 7.1529977764305599e+00 0 0 0
924 2 1.9862253406964189e+01 1.5576535935805268e+01 1.0297332759772917e+01 0 0 0
31 1 9.4415716680715160e+00 2.4848480202333338e+01 6.3609377851027675e+00 0 0 0
224 2 2.1694011876144582e+01 2.8597423521533297e+01 5.9638119071534250e+00 0 -1 0
1781 2 1.0353105135498492e+01 1.1254491373862834e+01 1.4902431455682143e+01 0 0 0
1710 2 1.1612051412312489e+01 4.2075378592432839e+00 1.5713737166973663e+01 0 0 0
1689 2 8.0247527278471011e+00 7.8141583545279723e+00 1.2269176231657230e+01 0 0 0
1705 1 1.1940693637693059e+01 1.3997057144788389e+01 1.4590659107927523e+01 0 0 -1
1773 2 2.3178343216213538e+01 3.2791625620014095e+01 2.6305522870067033e+01 0 0 -1
101 2 5.6693317848688363e+00 7.6024294152163652e+00 8.5577911409087513e+00 0 0 0
1570 1 1.1705805718861706e+01 1.0429095032857362e+01 1.5604041728819343e+01 0 0 1
2314 1 1.6080207563373868e+01 2.5169584280006465e+01 8.9467470079005906e+00 0 0 1
1129 1 1.3401661811995828e+01 1.5642515174757001e+01 2.1843843390771294e+01 0 0 -1
2360 2 9.5577420411019407e+00 1.4064757845238942e+01 1.3329787141813526e+01 0 0 0
1635 2 1.6219949121719029e+01 1.9078228048654488e+01 2.2641482588154496e+01 0 0 0
1017 2 1.1840843386272869e+01 5.9815513489566365e+00 9.9743446432055443e+00 0 1 -1
417 2 1.3012642218714184e+01 1.8041182172724355e+01 1.9683907386050613e+01 0 0 0
821 2 1.0604730993292621e+01 1.8565117752014860e+01 1.3324452319447651e+00 0 0 0
563 2 2.0714793124071839e+01 6.8628919333560852e+00 1.5008190944306016e+01 0 0 0
896 2 2.1767635449718949e+01 2.6074284062976851e+01 2.0944804968976758e+01 0 0 -1
753 2 1.2543305032540268e+01 2.0533727482945899e+01 1.5733794279653297e+01 0 0 0
944 2 5.2634691136445042e+00 1.2166601783477665e+01 1.8381127024845054e+00 0 1 0
1571 2 1.2029992907654309e+01 1.1026320547150920e+01 1.6286561122892991e+01 0 0 1
2282 2 1.0171611856468193e+01 2.7477678747014160e+01 6.5926245899173352e+00 0 -1 0
894 2 1.2318434951564466e+01 2.0407310324265723e+01 1.0865494607019629e+01 0 0 0
133 1 2.7095690070868383e+01 2.2204364683575662e+01 1.9370234872082868e+01 0 -1 0
1274 2 1.0637479079705548e+01 5.4398210908919893e+00 1.8153455249487207e+00 0 0 0
1113 2 1.1596321521453941e+01 2.3007862090248878e+01 1.2285171247074663e+01 0 0 0
1669 1 5.6496115097292110e+00 4.9535352762990783e+00 7.4134336461973527e-01 0 0 0
1063 1 1.4453502509670638e+01 6.3317286482510244e+00 2.2568520333663034e+01 0 1 -1
1671 2 5.5891998771241944e+00 4.0108688160970853e+00 1.0513887301253408e+00 0 0 0
1791 2 4.9209893292776989e+00 6.4295564008078259e+00 6.6614077075014606e+00 0 0 1
1001 2 7.7168476643947095e+00 1.5149281439958447e+01 2.9267234036801582e+00 0 0 0
846 2 1.7773242932517618e+01 1.8959037665814336e+01 2.4338298945809218e+01 0 0 -1
359 2 1.8820384094207746e+01 2.5199543830750777e+01 2.3430273880201579e+01 0 0 0
1739 2 1.6805276717860430e+01 2.2927005669553527e+01 2.6095821051238005e+01 0 0 0
822 2 9.1320545984082653e+00 1.8678090107941060e+01 8.4537277457178017e-01 0 0 0
2471 2 2.0892208428331212e+01 1.1413970564335949e+01 1.8851529966975193e+01 0 1 0
227 2 8.0876682681581080e-01 1.8230600217000741e+00 2.9889651331167455e+00 0 1 0
887 2 1.7041701468596465e+01 2.0624019996691182e+01 1.9265897692907831e+01 0 1 -1
2465 2 9.9294322368420573e+00 1.6735511881662745e+01 6.8597981718880350e+00 0 1 0
54 2 1.6021779095712990e+01 2.6460065572900607e+01 1.1815503409057904e+01 0 -1 0
1577 2 1.5288012174762311e+01 2.0948885718394008e+00 7.6682321600378822e+00 0 0 1
223 1 2.2551507713205186e+01 2.8795006049992175e+01 5.5920111841851847e+00 0 -1 0
1719 2 2.2667263816899091e+01 9.7229879523178049e+00 2.0246360793168378e+01 0 0 0
353 2 9.5488311948051248e+00 1.3552282104390322e+01 1.0710971434771908e+01 0 0 0
2407 1 9.1855422867951280e+00 1.8954637183233508e+01 9.2701672397264687e+00 0 0 0
1687 1 8.6361684176647096e+00 7.8213634395386276e+00 1.3013593819036521e+01 0 0 0
986 2 1.6137478979640598e+01 1.2513385890698814e+01 2.3691949669251805e+01 0 0 0
1706 2 1.1346654323826721e+01 1.3477065582734433e+01 1.5174209442178926e+01 0 0 -1
1703 2 8.6819348658150872e+00 1.4260289583844919e+01 1.6059730082491910e+01 0 0 0
1374 2 1.7674196726357714e+01 2.1324143660212748e+01 1.6656756588711470e+00 0 0 0
1688 2 9.5395419281142626e+00 7.8793032346099645e+00 1.2555993983385232e+01 0 0 0
1002 2 6.7196363556740870e+00 1.5304114729846999e+01 4.2495911896334171e+00 0 0 0
1610 2 7.7245227227811721e+00 1.7157374696438850e+01 1.6196972122887725e+00 0 -1 0
922 1 2.0109964213972177e+01 1.5451799575881541e+01 9.3614468677770439e+00 0 0 0
345 2 3.1425588647689295e+00 1.1225636479423923e+01 1.5531951303282723e+00 0 0 0
845 2 1.6480769726424757e+01 1.8070967722224619e+01 2.4831677725490078e+01 0 0 -1
1563 2 1.0902250967861326e+01 1.7325989585210742e+01 1.3961173494910039e+01 0 0 0
908 2 1.8643528721723886e+01 3.0231150634928277e+01 2.2249497084340653e+01 0 0 -1
893 2 1.3017358771695360e+01 2.0002159042651751e+01 9.4619694675874140e+00 0 0 0
28 1 1.7158937405998838e+01 2.2924153572744299e+01 1.3448275839557841e+01 0 0 0
1785 2 2.4266156203420088e+00 2.2584808536825394e+00 3.2964580934848602e+00 0 0 0
2567 2 2.0017259936569541e+01 6.0321989862306076e+00 1.7226108068766500e+01 0 1 0
300 2 1.2294516313112986e+01 1.9491973798577487e+01 5.1724210610117014e+00 0 0 0
1585 1 1.2251452939941545e+01 1.4844603394044398e+01 1.2098410818072418e+01 0 0 0
2414 2 1.5107944872499587e+01 2.0549452778494384e+01 1.3576542930603363e+01 0 0 1
2436 2 2.6895822762256952e+01 2.6548704261910672e+01 1.7809498863520552e+01 0 0 0
2441 2 1.9168945796694107e+01 2.4761911974990067e+01 9.0433749941359771e+00 0 0 1
847 1 1.5310682466793438e+01 1.7922698598804367e+01 7.1263327443495648e+00 0 0 -1
1562 2 9.4484429733159860e+00 1.7744700282022237e+01 1.3537311037882185e+01 0 0 0
1015 1 1.2224670568087593e+01 5.0767247724987845e+00 9.8256715554088778e+00 0 1 -1
1738 1 1.6940485608164135e+01 2.3286865304537397e+01 2.7026265477517342e+01 0 0 0
949 1 2.3269339149680416e+01 2.4085934230153910e+01 1.7184765594129381e+01 0 -1 0
30 2 1.6223096768255754e+01 2.3160878804447250e+01 1.3619088004231592e+01 0 0 0
636 2 2.6507853223068370e+01 3.0006894624968528e+01 1.4143319328182361e+01 0 0 0
1045 1 2.9576537151312412e+01 2.9365788641364979e+01 1.8923655397416244e+01 0 0 0
917 2 1.2724931767157152e+01 1.5951438147318797e+01 2.5976154304607167e+01 0 1 -1
2440 1 1.8637420634970031e+01 2.4944301797493459e+01 9.8471127647642120e+00 0 0 1
98 2 1.1736089744530847e+01 8.4717653680734433e+00 3.2619638419827912e+00 0 0 0
2408 2 9.5821330931737592e+00 1.9882513899693333e+01 9.2406172688524233e+00 0 0 0
843 2 1.3173750656548457e+01 2.1362678394532857e+01 2.5034200875614580e+01 0 0 -1
1065 2 2.4915484557553778e+01 3.3593824712789562e+01 2.3055168934597049e+01 0 0 -1
2636 2 1.6794900744771464e+01 2.9260859754613286e+01 2.3245485116864433e+01 0 0 0
2355 2 2.4397905721476114e+01 2.5297658399676227e+01 2.2482414646095989e+01 0 0 0
962 2 2.4972887713936888e+01 2.7382851620045052e+01 2.1254718729061878e+01 0 0 -1
888 2 1.6242090284125435e+01 2.1648901641664224e+01 2.0070075964047660e+01 0 1 -1
884 2 1.9024053018756820e+01 4.8090171954639036e+00 1.4658036835830675e+01 0 1 -1
299 2 1.1138731690093042e+01 2.0004934153471616e+01 5.9983363762801742e+00 0 0 0
626 2 2.2469985884460026e+01 1.3501559461563858e+01 2.4632394398173094e+01 0 0 -1
873 2 1.3941155063877853e+01 1.2148744238363776e+01 1.7477182491604474e+01 0 0 0
105 2 8.6637313453410236e+00 1.3096741082509009e+01 5.7709730397188972e+00 0 0 0
2311 1 2.1500525505635428e+00 5.4373960825330974e+00 1.8254129037909970e+00 0 1 0
1515 2 9.5784255947030275e+00 1.5739850623332567e+01 1.7631726629063003e+00 0 0 0
1896 2 1.2304855592645783e+01 1.2903398189552629e+01 8.3378172937515238e+00 0 0 1
1546 1 1.4323856283277959e+01 1.3722709151403892e+01 2.6433501344954134e+01 0 1 0
984 2 1.3742329755168873e+01 1.1327774498513271e+01 1.2894679954014743e+01 0 1 -1
588 2 7.2881198427771601e+00 1.3322655449824115e+01 4.0898371676310603e+00 0 0 0
909 2 1.9925802210661004e+01 3.1036399231814450e+01 2.2491847734810165e+01 0 0 -1
2668 1 1.9858434001823323e+01 2.6197641410081943e+01 1.5074386873672131e+01 0 0 0
2354 2 2.2824756965978050e+01 2.5219076686209977e+01 2.2640119752676679e+01 0 0 0
1874 2 1.1437086323564445e+01 2.6814033271855656e+01 8.5072928980836959e+00 0 -1 0
2527 1 1.7356042716163845e+01 3.0674581023689925e+01 2.6489329587273751e+01 0 0 -1
1273 1 1.0014369227769594e+01 6.0719711261207125e+00 2.1753463160638860e+00 0 0 0
1132 1 7.8459326179686499e+00 8.9520287285542111e+00 6.8141634031564617e+00 0 1 0
1780 1 9.5828563501904878e+00 1.1816995230378055e+01 1.4586483660905047e+01 0 0 0
166 1 2.9866165488015387e+01 2.5779392281945764e+01 2.4871470147981665e+01 0 0 -1
1514 2 9.8127687012488494e+00 1.5675819940619093e+01 3.3560112855538784e+00 0 0 0
2362 1 1.1550705693417232e+01 2.1774004202558878e+01 1.7710437840255032e+01 0 0 0
352 1 9.6293829815125509e+00 1.3640578335112279e+01 9.7562823019811464e+00 0 0 0
961 1 2.5467828458393942e+01 2.6455427873867443e+01 2.1399243791489447e+01 0 0 -1
885 2 1.7931083496344183e+01 5.1880116785666335e+00 1.3573104933899629e+01 0 1 -1
489 2 1.6910106435922717e+01 2.6104821256267993e+01 2.3137376140912327e+01 0 0 -1
2316 2 1.6992754451670056e+01 2.5282616091230576e+01 9.2785363734828348e+00 0 0 1
975 2 3.4459886627861973e+00 2.5157702126341395e+00 8.9146220409245274e+00 0 1 0
818 2 1.2275623089930420e+01 5.4233611990654058e+00 1.8860247281035210e+01 0 1 -1
775 1 1.2011473022564244e+01 2.5233928791549236e+01 5.5386465442184081e+00 0 0 0
1603 1 1.6894093559601917e+01 2.2054340651549595e+01 2.4742419338506267e+01 0 0 0
102 2 4.4499467922729137e+00 7.8688938846960061e+00 9.6162463375806890e+00 0 0 0
1605 2 1.7735420581393470e+01 2.1579494064800471e+01 2.4563565976972757e+01 0 0 0
1061 2 3.5331640649252938e-01 3.8478089607513710e+00 1.7672478698227596e+00 0 1 0
1059 2 9.0934129571609255e+00 2.7374856234887456e+01 3.1898446759140655e+00 0 0 0
100 1 4.6914542340350120e+00 7.4085697243772266e+00 8.7801661796723582e+00 0 0 0
1863 2 3.0235207861458306e+00 9.5114478326966196e+00 4.1639004980600136e+00 0 0 0
2669 2 2.0070688429104766e+01 2.7127785786891913e+01 1.4899554076913020e+01 0 0 0
2323 1 8.4746169610397626e+00 2.0765500376806461e+01 2.0867292875173629e+00 0 1 1
62 2 2.8655208172541961e+01 3.0355567935621625e+01 2.2359308249382664e+01 0 -1 -1
1016 2 1.2452859688496705e+01 5.0573359340012285e+00 8.8764785099879564e+00 0 1 -1
1578 2 2.5065362582492359e+01 2.8720022241470403e+01 7.7433335969654982e+00 0 -1 1
995 2 4.9178626734413253e+00 8.4066958603876785e+00 1.3298492620975531e+00 0 1 0
97 1 1.0751495586697761e+01 8.4364313939597739e+00 3.2972993018081085e+00 0 0 0
2361 2 1.0115377802283630e+01 1.4880966583461946e+01 1.2270223849412487e+01 0 0 0
782 2 1.5160173137336653e+01 2.9651753000621493e+01 1.3731763470460869e+01 0 0 0
1513 1 9.5107998372389169e+00 1.5167060087482000e+01 2.5466329958437233e+00 0 0 0
1078 1 1.6184770533164677e+01 2.5174776922303401e+01 1.6261767910676088e+01 0 0 0
963 2 2.6125886184812568e+01 2.6648232465929617e+01 2.2094213722885680e+01 0 0 -1
1547 2 1.4959979290286515e+01 1.3101176233072120e+01 2.6857878391875118e+01 0 1 0
2353 1 2.3677702233550242e+01 2.4858307203791206e+01 2.3000338245780576e+01 0 0 0
194 2 7.1767842901344707e+00 2.1109942101666284e+01 1.0036799637955662e+00 0 -1 0
825 2 7.3986051615691117e+00 7.1475033681111722e+00 1.9517477797944345e+01 0 1 -1
985 1 1.5759316465441731e+01 1.1803294512355055e+01 2.3108874697404563e+01 0 0 0
1884 2 1.0811629893069124e+01 1.9738427742320582e+01 1.2351161817357955e+01 0 0 0
76 1 9.0632628787115941e+00 2.2438742552608353e+01 3.9704027902004411e+00 0 -1 0
298 1 1.1900124775899590e+01 1.9361128813446339e+01 6.0647084855359417e+00 0 0 0
1707 2 1.2854424360235516e+01 1.3753808129572622e+01 1.4556821683599907e+01 0 0 -1
857 2 1.6158472422186474e+01 8.7362835838249016e+00 1.2236456345305058e+01 0 0 0
612 2 8.7408950678077595e+00 3.7522688318270490e+00 1.4151245980153197e+01 0 1 0
1700 2 1.1264177917384083e+01 1.5966670606848222e+01 2.4200467144551673e+01 0 0 0
1079 2 1.5751814093063334e+01 2.6039830834862641e+01 1.6228081383436024e+01 0 0 0
883 1 1.8717441859426962e+01 5.5209496978540828e+00 1.4124647886433841e+01 0 1 -1
2442 2 1.8557777680079095e+01 2.4119832261072691e+01 1.0289789263858907e+01 0 0 1
1915 1 1.2327162354260977e+01 2.4064716393756090e+01 1.6175052721788106e+01 0 0 0
114 2 1.5592993123682135e+01 3.0287461782699122e+01 1.9834303246065822e+01 0 -1 0
2315 2 1.5737272684838285e+01 2.4448248513176733e+01 9.5171645218551273e+00 0 0 1
976 1 1.8834166043301590e+01 1.0633424569824317e+01 5.9726355356164476e+00 0 0 0
983 2 1.4483869256811246e+01 1.0862104004175508e+01 1.4184359515923214e+01 0 1 -1
923 2 2.0696226479951232e+01 1.4669311795218285e+01 9.2152266261335889e+00 0 0 0
2572 1 1.7139646772877086e+01 2.1409927584166027e+01 1.5768743904810295e+01 0 0 0
354 2 8.9362058072709534e+00 1.4238448003558464e+01 9.4781257920766322e+00 0 0 0
156 2 2.0761545686644482e+01 2.7223613066847371e+01 1.0355921743326608e+01 0 -1 0
1589 2 1.1481154336110990e+01 2.4397324266686230e+01 3.8647341508387738e+00 0 -1 1
1616 2 1.3899938690582932e+01 2.3692704524255785e+01 9.9807350751087842e+00 0 -1 0
1050 2 1.5158271274564644e+01 2.4868984881900332e+01 7.0443280277212983e+00 0 0 0
1081 1 1.8745480416090221e+01 1.6968205161843930e+01 1.9962574288961470e+01 0 0 -1
1594 1 1.9397894607464170e+01 2.0361814373955568e+01 1.4547881709119974e+01 0 0 0
2445 2 1.0360520804343160e+01 9.7444576106934200e+00 8.5901028411944260e+00 0 1 0
1588 1 1.0963806655284865e+01 2.4510354254453070e+01 3.0670518996192113e+00 0 -1 1
1150 1 2.0444325186052172e+01 1.9423862566744777e+01 1.7878221273933232e+01 0 0 0
1841 2 1.6711073409997812e+01 1.5653148457227973e+01 2.1959513746290689e+01 0 0 0
313 1 1.4172582155120269e+01 1.6231300774286776e+01 1.5754256085686414e+01 0 0 -1
1118 2 2.0768246572595025e+01 2.7291586159085853e+01 2.4770068087686937e+01 0 0 -1
1872 2 1.5615504848785871e+01 2.4122677315167749e+01 1.9550166634474330e+01 0 0 0
2613 2 8.2320522628504200e+00 2.8826643781682195e+00 9.3192111354081870e+00 0 1 1
1133 2 8.7301336509921708e+00 8.8604461960968610e+00 6.4440460026138480e+00 0 1 0
1762 1 1.1100312207543427e+01 8.3798048005955561e+00 1.1700299365036555e+01 0 0 0
2556 2 2.2956412600873787e+01 2.1986079992964243e+01 2.4614247287131469e+01 0 0 0
2548 1 1.7473660409794864e+01 1.0754849267153114e+01 2.5861478883612875e+01 0 1 0
1870 1 1.4979364678654058e+01 2.4463995189270761e+01 1.8859583917683150e+01 0 0 0
1662 2 5.7021577315626990e+00 1.4432282177475068e+01 2.0708091971406750e+00 0 -1 1
2624 2 1.1208800424217941e+01 1.6716197988856553e+01 2.0620987819101451e+01 0 0 0
1736 2 1.5199224605982682e+01 1.1056033067128514e+01 8.7202856161981686e+00 0 0 0
376 1 2.0041982182378423e+01 2.9636629677996552e+01 1.9377590376902919e+01 0 -1 0
1109 2 1.2814581140270651e+01 7.5862033570778777e+00 1.7634049462229182e+01 0 0 0
372 2 1.6737353229460567e+01 1.0229089979527259e+01 1.9720017081620291e+01 0 0 0
333 2 1.7032699455753356e+01 3.0844944254443678e+01 1.5697334955979510e+01 0 0 0
2555 2 2.2442552639349966e+01 2.1618231486189678e+01 2.6055623554873552e+01 0 0 0
374 2 9.7172412881015902e+00 1.0607458617101665e+01 3.4376758131694389e+00 0 0 0
1801 1 1.2554094166541587e+01 2.2284711154510479e+01 1.3546738066058182e+01 0 -1 0
442 1 1.0838682065292641e+01 3.4509352099352233e+00 4.8943105914028262e+00 0 0 0
2601 2 2.5041738206282862e+01 2.3793219962382722e+01 1.0980585574371961e+01 0 0 0
2600 2 2.3702821922110477e+01 2.3367015468334252e+01 1.0431125844191840e+01 0 0 0
188 2 1.1921408565183032e+01 2.3359631679887045e+01 9.8402689594850674e+00 0 0 0
2444 2 1.1204163246475726e+01 1.1106943065031984e+01 8.7558964252634386e+00 0 1 0
1751 2 2.3471875240410434e+01 2.9805115736476282e+01 1.3672605578949048e+01 0 0 0
2642 2 1.0442243580408814e+01 8.0589845157305788e+00 1.0154365141706801e+01 0 0 1
2307 2 1.9270941018511401e+01 2.9476383668073616e+01 6.1032327198104550e+00 0 -1 0
1119 2 2.0515015321307679e+01 2.6662593896849330e+01 2.6137941191962572e+01 0 0 -1
1088 2 1.9759140542526413e+01 2.8573154751876800e+01 2.5869194611291988e+01 0 0 -1
2431 1 1.5970968255423802e+01 2.9315319392161836e+01 1.8569706383907796e+01 0 0 0
269 2 1.9495988665837697e+01 2.2277892768635425e+01 2.1294807719791631e+01 0 -1 -1
2306 2 1.9340104836342856e+01 2.7986942370175413e+01 5.5943985213632628e+00 0 -1 0
198 2 9.8825006980794434e+00 5.2021146603016764e+00 8.0983582505491523e+00 0 0 0
1089 2 2.0071662555212765e+01 3.0150191092185935e+01 2.5500956695410743e+01 0 0 -1
2468 2 1.0472752053096498e+01 1.3288855206437002e+01 2.9187653572882266e+00 0 0 1
706 1 1.9530085150628533e+01 1.0002228910466421e+01 1.6348165413529895e+01 0 0 0
776 2 1.2826770929728999e+01 2.4969028640841735e+01 5.9875381158697678e+00 0 0 0
830 2 1.4348618236054413e+01 2.4954079658640826e+01 1.1712074082181070e+01 0 0 0
1658 2 1.7983742662121184e+01 3.2622191680187470e+01 1.9095859434144799e+01 0 -1 0
556 1 2.1853450495141875e+01 1.9097658592549557e+01 1.1994833614616624e+01 0 0 0
2604 2 1.8894560825852057e+01 1.6207628604595417e+01 2.3452781068207180e+01 0 1 0
1099 1 2.5543536229961170e+01 1.9126943111888139e+01 2.2777869604313196e+01 0 0 -1
1134 2 7.9018082080044731e+00 9.7804055231403719e+00 7.3904765775914401e+00 0 1 0
2644 1 1.3804011099172232e+01 9.0450069364335093e+00 2.0448449398803774e+01 0 0 0
3026 2 2.5755443459293435e+01 3.1959536012642502e+01 2.0146445548670208e+01 0 0 0
332 2 1.6678370007641391e+01 3.1762368987727598e+01 1.6838813219063322e+01 0 0 0
1735 1 1.5584410614745646e+01 1.1004930026055042e+01 9.6163212031497149e+00 0 0 0
2646 2 1.4542070411061044e+01 9.5497667618065556e+00 1.9944683237436951e+01 0 0 0
2413 1 1.5350105384617951e+01 2.0161201654272404e+01 1.4415593671999943e+01 0 0 1
895 1 2.1490684344588637e+01 2.6169976129210429e+01 2.1847656577113352e+01 0 0 -1
2603 2 2.0271696868630737e+01 1.5389977717374313e+01 2.3577693915894024e+01 0 1 0
2554 1 2.2555710128021627e+01 2.1288183535581556e+01 2.5115993326477341e+01 0 0 0
2629 1 8.1994496431422057e+00 4.2264924986231618e+00 1.1032749652692257e+01 0 0 0
2305 1 1.9675002751498415e+01 2.8629496412361235e+01 6.1955219953826903e+00 0 -1 0
443 2 1.0442068214306772e+01 2.6584820510830012e+00 4.4495754852066245e+00 0 0 0
829 1 1.4644417015913898e+01 2.5821563186955277e+01 1.2114974718845447e+01 0 0 0
2375 2 7.5879362328535560e+00 6.1929947804705208e+00 6.1224620311572338e+00 0 1 1
994 1 5.0842573041085943e+00 9.2606493353631265e+00 9.0069661646060084e-01 0 1 0
2641 1 1.0053309849048365e+01 8.2277831372625059e+00 9.2579575102163272e+00 0 0 1
897 2 2.0673194408538201e+01 2.5701461683135662e+01 2.2123990404500983e+01 0 0 -1
318 2 2.3551150038754326e+01 2.8897995601196847e+01 2.6377238896990370e+01 0 -1 -1
725 2 5.1116778628479018e+00 6.3402695714592134e+00 2.1109462319503365e+00 0 0 1
2456 2 1.3090834589013777e+01 1.7595985787958529e+01 2.0531141211575843e+00 0 0 1
1672 1 5.5220850452732879e+00 2.3094102637411673e+00 6.3210874280979858e+00 0 0 0
1617 2 1.4329669758442652e+01 2.2692613614016778e+01 1.1125549127097377e+01 0 -1 0
1117 1 2.0112252963912407e+01 2.7230499697589622e+01 2.5468644865669983e+01 0 0 -1
1737 2 1.5029792605415143e+01 1.1548478669538614e+01 1.0216647778383766e+01 0 0 0
1909 1 1.4664435110730476e+01 1.3828199534630738e+01 1.4526900247777236e+01 0 0 0
1682 2 5.4335399545387553e+00 3.9633554354956635e+00 9.4489856158281427e+00 0 0 0
746 2 2.4638471930538596e+01 8.7422369580862913e+00 2.6375871184666309e+01 0 0 -1
197 2 8.4870460361047950e+00 5.9967743222295340e+00 8.0731064692446797e+00 0 0 0
2396 2 1.3742801617949397e+01 3.0321388121376124e+01 1.1903777270541603e+01 0 0 0
1699 1 1.2202276021983121e+01 1.6338158037353082e+01 2.4122413369750340e+01 0 0 0
444 2 1.0137161544583140e+01 4.1656407977122925e+00 4.8616410430834112e+00 0 0 0
2513 2 1.7831589744337347e+01 2.5632674238514369e+01 1.7142350110716478e+01 0 0 0
1914 2 1.8630475994131146e+01 3.4390725045654442e+01 2.4623475846239632e+01 0 0 0
1681 1 5.4033736252429891e+00 3.2832264157680568e+00 8.7650837813861635e+00 0 0 0
2467 1 1.1216517297006925e+01 1.2907703041050993e+01 3.4645579851116559e+00 0 0 1
1596 2 1.9359289932760653e+01 2.0359770670214154e+01 1.3581637576619549e+01 0 0 0
1621 1 1.5870790830740482e+01 1.7422593745933398e+01 1.7743607713714969e+01 0 0 -1
1622 2 1.5365756516089213e+01 1.7366446145894010e+01 1.8608678910482855e+01 0 0 -1
1151 2 2.0801526903454125e+01 1.8627715726264078e+01 1.7548081934900512e+01 0 0 0
1691 2 1.3621842364174901e+01 2.6133935994011829e+01 3.3343426912365608e+00 0 -1 1
316 1 2.3468520789257706e+01 2.9666057233012523e+01 2.7073974211291056e+01 0 -1 -1
2612 2 9.0335835715596708e+00 2.5673865931030035e+00 8.0762197131593485e+00 0 1 1
2491 1 9.5157454596732389e+00 1.8029515808604089e+01 4.0865498655309835e+00 0 0 1
1912 1 1.9138988222702192e+01 3.3738841872515408e+01 2.5128317940435508e+01 0 0 0
1110 2 1.2562070104830951e+01 8.6469788280875672e+00 1.6425879254413825e+01 0 0 0
204 2 5.5930978691446063e+00 6.2276802776422926e+00 1.6947715642130674e+01 0 1 0
2563 1 1.1497547931873781e+01 1.1451057025059274e+01 9.6835940984461133e-01 0 1 0
2630 2 8.5995256559238058e+00 4.8701630243267893e+00 1.0393156063668430e+01 0 0 0
216 2 1.9846325272770695e+01 2.3693368964136361e+01 1.2215262508280988e+01 0 0 0
819 2 2.2207889433979577e+01 3.2097352686257992e+01 1.9491565014473533e+01 0 0 -1
373 1 8.9661276224208866e+00 1.0986228626618820e+01 2.8969797701578770e+00 0 0 0
1049 2 1.4581353092168648e+01 2.3536008862725136e+01 6.8339426455182419e+00 0 0 0
2512 1 1.8789627115802936e+01 2.5701963890515010e+01 1.7296368249279769e+01 0 0 0
214 1 2.0601608009455955e+01 2.3081992133407375e+01 1.2059590523591547e+01 0 0 0
1900 1 9.6297636702313039e+00 9.2347626753158440e+00 2.3964970718527638e+01 0 0 0
375 2 8.5230235490021560e+00 1.1679533105122001e+01 3.4347763733020367e+00 0 0 0
1668 2 7.2397127927320870e+00 9.4628692291306873e+00 6.9539576041477691e-01 0 0 1
2439 2 1.9601373534992216e+01 2.0380784084370493e+01 2.5238522497969250e+01 0 1 -1
189 2 1.2187248543846827e+01 2.4730294880641207e+01 9.0440598482770316e+00 0 0 0
844 1 1.7028821225504412e+01 1.8315079505488171e+01 2.4054633774158997e+01 0 0 -1
187 1 1.2384539467333871e+01 2.3788170723472412e+01 9.0677251333375075e+00 0 0 0
1611 2 7.9308758957828829e+00 1.7685448910618007e+01 3.1127755275345317e+00 0 -1 0
314 2 1.4767095509675592e+01 1.6576353779985475e+01 1.5062297716895030e+01 0 0 -1
2602 1 1.9830282384910724e+01 1.6242711246938494e+01 2.3777382164898139e+01 0 1 0
1548 2 1.3534146077870346e+01 1.3191554818247464e+01 2.6235993533764841e+01 0 1 0
1560 2 1.4711770684223396e+01 2.4839849888597001e+01 4.6113086054884818e+00 0 0 1
1130 2 1.2769679222340462e+01 1.6027962616127638e+01 2.2541981194195881e+01 0 0 -1
271 1 1.2243497770112292e+01 1.3324196071605851e+01 2.0634873094075196e+01 0 0 0
2469 2 1.1759643173806516e+01 1.2334786865368388e+01 2.8873006212588104e+00 0 0 1
1657 1 1.7098188809757037e+01 3.2364199594015716e+01 1.8749284945086039e+01 0 -1 0
385 1 1.9854435600082770e+01 1.5529649473784481e+01 2.6565960192437750e+01 0 0 -1
154 1 2.0658347741290083e+01 2.6851512402858500e+01 1.1273636310901217e+01 0 -1 0
29 2 1.7461539450854797e+01 2.2521942133073662e+01 1.4259991608275683e+01 0 0 0
1152 2 1.9510081399990366e+01 1.9497154038237767e+01 1.7733011517137911e+01 0 0 0
625 1 2.2752035003702783e+01 1.3213892801380508e+01 2.5516182271985596e+01 0 0 -1
2585 2 3.4957102844358463e+00 8.2897813554296924e+00 7.5786534228706950e+00 0 1 1
2437 1 1.8956935172877092e+01 2.0359560358609048e+01 2.4399553919571602e+01 0 1 -1
1615 1 1.4563948234612802e+01 2.3524995804893639e+01 1.0685390344570079e+01 0 -1 0
920 2 2.4244718053948652e+01 2.0875533771601059e+01 1.7685977994872314e+01 0 0 -1
284 2 1.6345416390952153e+01 5.8341198864631796e+00 2.0420659784408841e+01 0 1 -1
871 1 1.3021328688699921e+01 1.1833950533575905e+01 1.7402252810578492e+01 0 0 0
820 1 9.9559318017781600e+00 1.9188995431392165e+01 9.0527683711220297e-01 0 0 0
2670 2 1.9216051105049399e+01 2.6004559422066453e+01 1.4320186316320612e+01 0 0 0
117 2 1.4630009188377162e+01 1.3661297208517306e+01 2.1735306274110568e+00 0 0 0
277 1 1.5464773809745061e+01 1.1496463939064064e+01 1.5255867272139280e+01 0 0 0
2492 2 9.3184950730811700e+00 1.8272499957645060e+01 5.0165476579586654e+00 0 0 1
1085 2 1.4258261178918611e+01 1.7412262179810067e+01 3.8660666218721587e+00 0 0 0
848 2 1.5368082734466217e+01 1.8301816097962799e+01 6.1729386827957624e+00 0 0 -1
1012 1 2.4341081312819714e+01 1.2768516047237517e+01 2.2115961672564740e+01 0 0 0
1084 1 1.3983056057293435e+01 1.6735864563420105e+01 3.2422828178383511e+00 0 0 0
1910 2 1.4653310988924080e+01 1.4631146447550197e+01 1.5118484251314829e+01 0 0 0
1087 1 1.9670277234576528e+01 2.9547525749786161e+01 2.6184206301389516e+01 0 0 -1
360 2 1.9160926712523601e+01 2.4166183016735573e+01 2.2298071023398748e+01 0 0 0
196 1 9.3387704778443865e+00 5.8547333056659889e+00 8.5491188253272306e+00 0 0 0
777 2 1.1999590240890097e+01 2.6202873052544632e+01 5.5048478088049908e+00 0 0 0
308 2 2.5364553210342603e+01 2.8923993187883429e+01 2.4539728648996309e+01 0 0 -1
309 2 2.6784456894887018e+01 2.9562506650578626e+01 2.4151550470420933e+01 0 0 -1
3003 2 1.4297795239630211e+01 5.2093046825488312e+00 8.0423996294774742e+00 0 1 0
1809 2 1.4452065592600405e+01 1.2898179434489750e+01 1.1555493119415688e+01 0 0 0
880 1 1.6510540998043638e+01 2.3175300096996008e+01 2.0585399827733809e+01 0 0 0
315 2 1.3207657064848652e+01 1.6508404216220733e+01 1.5595895057571333e+01 0 0 -1
283 1 1.5532333854783371e+01 5.3729797464497899e+00 2.0398330156233509e+01 0 1 -1
386 2 2.0114553567925341e+01 1.5818061420594862e+01 2.5684088733433459e+01 0 0 -1
2376 2 7.1346305332395552e+00 7.4060500924200401e+00 6.8899978938246464e+00 0 1 1
726 2 4.6369818567211283e+00 7.4757348075604035e+00 3.1485632409528144e+00 0 0 1
1545 2 8.0012445157831813e+00 9.1484652407953817e+00 1.4065103784430226e+01 0 0 0