LAMMPS data file via write_data, version 15 Apr 2020, timestep = 9495000

6144 atoms
2 atom types

-3.0440355621952904e+00 6.3012324698191861e+01 xlo xhi
0.0000000000000000e+00 2.8124954380965058e+01 ylo yhi
0.0000000000000000e+00 2.7184349534802010e+01 zlo zhi
1.0162316232391220e+01 1.0187207253202587e+01 7.1202841745247056e+00 xy xz yz

Masses

1 16
2 2

Atoms # atomic

1860 2 1.3566808270217930e+01 9.2400409977816995e+00 1.2605971192997703e+01 0 0 0
732 2 1.0362590678405784e+01 6.3883531921258090e+00 1.1562219615813374e+01 0 0 0
2909 2 1.8702351875409587e+01 7.6977033791398775e+00 2.2157857102244648e+01 0 1 -1
2216 2 1.6118968550957277e+01 5.6498817262106433e+00 2.0107266687297411e+01 0 1 0
3476 2 3.6445503758898870e+00 8.1730809160861799e+00 1.2191159229280162e+01 1 0 0
4505 2 1.2284233677926320e+01 9.2080212289287449e+00 2.1613012740371826e+01 1 1 0
1372 1 1.0467446558214144e+01 1.1002101419743536e+01 2.3039566268732365e+01 0 1 -1
414 2 1.4398004946993993e+01 1.7942722200011403e+01 2.3662977205131519e+01 0 0 1
1158 2 2.6058136915796993e+01 1.8673204315724632e+01 2.5348531512812237e+01 0 1 -1
5200 1 7.2053167409558334e+00 4.9841764083046343e+00 9.6241890641397863e+00 1 0 0
233 2 9.9870834947347689e+00 7.9940974883863207e+00 1.4786740041685146e+01 0 -1 1
49 1 3.7358719522322703e+00 3.2576270225386388e+00 7.2456674859928567e+00 0 0 0
3693 2 1.9130430872801089e+01 2.0272213240369258e+01 3.8574266807695961e+00 1 -1 0
1807 1 7.1706115664324237e+00 1.4995465227768220e+01 1.1442452805462928e+01 0 0 0
1902 2 1.4014982559823245e+01 2.5984188620905293e+01 1.3488161086203455e+01 0 0 0
6071 2 1.9483940635315861e+01 3.0468216740574292e+01 1.0055272481439410e+01 1 0 0
6065 2 6.0352700553458263e+00 8.9991325578192267e+00 1.7939573684879267e+01 1 1 0
66 2 1.5876700760321857e+01 2.6035278371790223e+01 1.0323587281935636e+01 0 -2 0
5805 2 2.7144539563792772e+01 2.9383086137120976e+01 2.4651712912799731e+01 1 0 0
1670 2 1.9117843820898823e+01 1.3681500747439276e+01 2.5300363040661257e+01 0 -1 0
1236 2 1.1476279408127178e+01 2.1118730584025649e+01 2.3201134943799964e+01 0 0 0
1893 2 1.7856505765586427e+01 1.7447490458690638e+01 2.6134232630362142e+01 0 0 -1
2591 2 1.8534840579808403e+01 2.0609874143263809e+01 2.4253112162839848e+01 0 1 0
1620 2 2.2392434669468827e+01 3.1226660809594044e+01 1.6772756689465751e+01 0 0 0
1513 1 4.0286998764980835e+00 4.9538203706444959e+00 1.3955660586183093e+01 0 0 0
1332 2 5.4787224753937878e+00 2.0403395173001311e+01 2.2477510775825436e+00 0 0 0
365 2 1.5500877255847548e+01 9.2668874552951017e+00 1.4777466174619438e+01 0 0 0
2681 2 1.6611664046090560e+01 1.2950009664109469e+01 1.9643314816534364e+01 0 0 1
2251 1 2.3661569074482898e+01 2.4639587987340718e+01 1.6070064501641053e+01 0 0 0
4238 2 2.2837642824192308e+01 1.9216814571606118e+01 2.2411317416513388e+01 1 0 -1
364 1 1.5713845495471396e+01 8.3916176626552890e+00 1.5172441221178730e+01 0 0 0
17 2 2.3204970509578050e+01 1.6763493526091704e+01 1.6906712634469887e+01 0 0 0
136 1 1.1099133939693177e+01 7.2431532043587152e+00 9.8781624035993207e+00 0 -2 1
1241 2 1.5877499109218626e+01 3.2100275343825345e+01 2.3523797226002969e+01 0 0 0
4386 2 1.4573828626810275e+01 3.0097948691194446e+01 2.3617178182077293e+01 1 0 -1
2043 2 2.2902385067928336e+01 2.7615581839349918e+01 5.7751925835854667e+00 0 0 1
1156 1 2.6177128916921390e+01 1.9162549486437726e+01 2.6255484818616495e+01 0 1 -1
2027 2 1.3510861980534088e+01 2.3020099446986521e+01 1.7751250035851822e+01 0 0 1
1679 2 2.8183676285763966e+01 3.1287065243815125e+01 2.0303446102206408e+01 0 -1 0
2682 2 1.7882145087395219e+01 1.3790900175477166e+01 1.9950126462111630e+01 0 0 1
5055 2 1.1325729256056707e+01 6.6784607583767883e+00 1.6152342018913412e+01 1 0 0
2488 1 1.9398367098622145e+01 3.1909519574388334e+01 1.5745763301383178e+01 0 0 0
2282 2 1.0458107559988974e+01 1.9785349666160194e+01 2.7754077882087391e+00 0 -1 0
1947 2 1.1986905728497376e+01 2.2125284605699900e+01 1.5109473768578576e+01 0 0 0
477 2 1.8351589845179426e+01 2.4229104041830588e+01 1.8354260107413523e+01 0 0 -1
5919 2 1.4573243465172162e+01 2.9681941487987245e+01 1.3870915069228900e+01 1 0 0
55 1 1.9600615530358880e+01 1.9369748846188024e+01 1.2266151148199096e+01 0 -1 0
2073 2 1.9580673928877456e+01 2.1058559974921991e+01 2.0570808463448810e+01 0 0 0
2072 2 2.1022173740863462e+01 2.1406699199462132e+01 2.0174055570712877e+01 0 0 0
70 1 1.2161255157167545e+01 2.5017287906883695e+01 1.1207383764052906e+01 0 0 0
1874 2 1.8897479899922825e+01 2.3871280103550927e+01 8.4358050021467168e+00 0 -1 0
1739 2 2.0683552389282012e+00 3.9806225880479187e+00 1.3512665322438824e+00 0 1 0
3624 2 9.8593817894554228e+00 1.4635677574364475e+01 1.0271743180226068e+01 1 0 0
3471 2 1.1344989379414013e+01 5.6743714020083766e+00 2.6817563050264909e-01 1 0 0
5780 2 2.2060261067423365e+01 2.5275721722494339e+01 7.9345700576039961e+00 1 0 0
1997 2 2.2887999994912150e+01 1.2107517549430765e+01 2.0442278237039432e+01 0 0 0
628 1 1.6590521349506894e+01 2.4737291971585616e+01 1.6061712913297288e+01 0 0 0
309 2 2.0593564395534536e+01 3.1177524993346925e+01 2.0470066967728705e+01 0 0 -1
2322 2 6.8663988819439137e+00 1.0597390607773082e+01 3.6480378970016529e+00 0 1 0
787 1 1.0774742299120076e+01 1.2981973205570561e+01 3.8473476172381758e+00 0 0 1
809 2 1.3228753979733870e+01 6.0594752127721421e+00 2.1142895303064190e+01 0 1 -1
475 1 1.7676688919987370e+01 2.4938599003903853e+01 1.8343540422641809e+01 0 0 -1
1795 1 1.0500189157240214e+01 1.1428887580234905e+01 1.1751118935061747e+01 0 0 0
2016 2 1.5793529168222776e+01 3.1453865277014597e+01 1.7757422575435719e+01 0 0 0
4243 1 2.0528869058029183e+01 2.7278412502263940e+01 2.3960626824487356e+01 1 0 -1
1044 2 2.5324419362850030e+01 1.7958444158702516e+01 2.3169108865064803e+01 0 0 -1
5293 1 1.9601184865201891e+00 7.4181236871350897e+00 5.2455928522706454e+00 1 0 0
2298 2 1.3156681552605345e+01 2.0293186918912234e+01 6.3442287206220636e+00 0 0 1
1873 1 1.8271333991952979e+01 2.4017655043606435e+01 7.7157618439499007e+00 0 -1 0
504 2 1.6138727134394898e+01 1.8626660546523656e+01 2.6083716938070605e+01 0 0 0
205 1 2.1962114179026887e+01 3.1911582270544923e+01 1.5125431256229351e+01 0 -1 -1
1813 1 9.6338876234433073e+00 6.2446952168343337e+00 1.8777620528683762e+01 0 1 0
1538 2 1.9878416311700043e+01 2.8100089302123362e+01 1.0014587598868525e+01 0 -1 0
5040 2 1.7250884595805687e+01 9.5577822633416538e+00 1.1084953229951005e+01 1 0 1
1859 2 1.3596071052732754e+01 1.0431491518574985e+01 1.1559076925955058e+01 0 0 0
6040 1 1.7983389045602159e+01 8.9315600372147461e+00 1.2723550153228132e+01 1 0 0
2929 1 1.4877772551864254e+01 1.0393784018300352e+01 1.7838572183437691e+01 0 1 0
1094 2 1.2587936597027843e+01 5.2944295664956407e+00 6.7883276975795015e+00 0 0 -1
1712 2 2.0018940572020005e-01 2.3259026220496404e+00 4.7183051179067306e+00 0 0 1
3571 1 9.8896061209695798e+00 2.4378237075452180e+01 2.0143825325012381e+00 1 -1 0
117 2 7.8653042000211766e+00 5.7110937021306469e+00 1.4316519206270570e+01 0 0 0
584 2 1.3292420585463894e+01 1.2728861089132405e+01 1.8746600196125094e+01 0 1 -1
2612 2 1.8844193427247109e+01 2.9715970885818706e+01 1.7274323229212687e+01 0 0 1
5801 2 1.4249596346442253e+01 2.3166930479911628e+01 2.0073193304175518e+01 1 0 0
4484 2 2.6460391500335643e+00 9.7355542733118288e+00 1.4728509334705848e+00 1 0 0
651 2 2.5701748186166956e+01 3.1588677752606486e+01 2.0689479902204969e+01 0 0 0
2095 1 1.6919625533619119e+01 1.0770867827101942e+01 5.7555792428923027e+00 0 -1 1
1024 1 1.3910944872496092e+01 7.2609158549992090e+00 2.0327309507541113e+01 0 1 -1
2291 2 1.5490963891082657e+01 5.3033504313395641e+00 3.9144386839707872e+00 0 0 2
2309 2 2.1609471543966063e+01 3.3753158202764808e+01 2.2752404056980794e+01 0 0 0
890 2 1.5263792434198578e+01 6.5940153214965411e+00 1.4742170891494679e+01 0 0 -1
1691 2 1.2808479975028622e+01 2.8526589661836979e+01 9.4798390595890734e+00 0 -1 1
1809 2 7.7549603561648368e+00 1.5159418803675720e+01 1.0664732341594833e+01 0 0 0
2338 1 1.6937542928435867e+01 6.7767509929065621e+00 1.7445615015933374e+01 0 1 -1
2544 2 1.3953700130397017e+01 2.7604858067048834e+01 6.1055666696153343e+00 0 1 0
1793 2 1.4129389814237342e+01 1.7847274555026786e+01 2.7041954317348992e+01 0 0 0
3503 2 1.0269210535620195e+01 1.0262719538708392e+01 1.0457362367756621e+01 1 0 0
1235 2 1.2774602320880438e+01 2.0451517667708949e+01 2.3153412921476335e+01 0 0 0
5779 1 2.2034094195633529e+01 2.4356622272196191e+01 7.6523741280861639e+00 1 0 0
229 1 7.9768032450673356e+00 1.1276339809543767e+01 1.9018692891532268e+01 0 0 -1
2296 1 1.4119001445224605e+01 2.0408583886277249e+01 6.4744671304919406e+00 0 0 1
2327 2 2.6742922619519206e+01 2.9943484412458847e+01 2.6556640738361715e+01 0 0 0
1815 2 1.0302633152010088e+01 6.3638165357327310e+00 1.8005951356177487e+01 0 1 0
4478 2 1.9962826674213595e+01 2.4837162018629119e+01 2.6471233355563879e+01 1 0 -1
3473 2 9.3184655326486094e+00 2.1946961855988668e+01 1.2394265348165558e+01 1 -1 0
1027 1 5.6407631052348517e+00 9.8538033082931218e+00 2.7368234100100026e+00 0 0 0
604 1 1.0869183793162680e+01 2.2609055845707868e+01 6.1115798518773641e+00 0 -1 0
1618 1 2.2172645581355614e+01 3.0832279621914473e+01 1.7632157914259331e+01 0 0 0
5803 1 2.7463712323768284e+01 2.9453312095174240e+01 2.3766333396513954e+01 1 0 0
4385 2 1.5377377977746164e+01 2.8712451549755713e+01 2.3829148955353986e+01 1 0 -1
1519 1 3.7613203245939646e+00 1.6814734927266429e+01 5.5612335800574220e-01 0 0 1
383 2 1.9956367792876105e+01 2.1936388354930362e+01 2.5173672091929987e+01 0 1 -1
682 1 7.1627273698969951e+00 1.3396791725066700e+01 5.8434733883776842e+00 0 0 0
53 2 5.3895088015358024e+00 1.6705287722743414e+01 1.6781417447195623e-01 0 -1 0
382 1 1.9356259320270667e+01 2.1802567167488277e+01 2.4420525948968521e+01 0 1 -1
483 2 9.0769886875128005e+00 1.8314564317891104e+01 9.8272218407837748e+00 0 -1 -1
930 2 7.5644104144144819e+00 1.2080796926453090e+01 2.1978895715495874e+01 0 1 0
5366 2 8.5312689487707321e+00 1.6827274088062584e+01 1.3804814525703193e+01 1 0 0
780 2 7.3864987405322111e+00 4.6637395887756705e+00 3.8027782724210457e+00 0 0 0
1851 2 4.6379039849308787e+00 1.6690194885483450e+01 3.2668339030781590e+00 0 0 0
1862 2 1.7380307533545967e+01 2.5866911049202393e+01 1.2368012285518862e+01 0 0 -1
1892 2 6.8048109822220937e+00 9.6141327279895830e+00 3.7220887938788236e-02 0 0 0
2010 2 2.2223359413185481e+01 2.9528408987854913e+01 7.3643371226952006e+00 0 -1 0
1849 1 5.4590153637075005e+00 1.7239334881625961e+01 3.4289083411005867e+00 0 0 0
1537 1 2.0047994928031883e+01 2.7279559051588070e+01 9.6450683939357447e+00 0 -1 0
1619 2 2.1358347461305446e+01 3.0344777204227306e+01 1.7634663704083415e+01 0 0 0
630 2 1.7294556719064104e+01 2.4259359009959979e+01 1.5548503710046202e+01 0 0 0
92 2 4.7431744110440253e+00 1.0374336203503042e+01 1.1832842458613994e+01 0 0 -1
6000 2 1.2280860250006279e+01 2.3475800158257435e+01 5.8882622833101479e+00 1 0 1
5799 2 8.7905385563026428e+00 8.7546291015892539e+00 1.9804533588762780e+01 1 0 0
5202 2 6.7315688840570740e+00 4.1572941244519335e+00 9.4492653977067551e+00 1 0 0
30 2 1.7094545346194934e+01 3.0441197761797294e+01 1.3833396400727690e+01 0 -1 0
4485 2 2.5726488478524860e+00 8.2698841693651026e+00 2.1693681583271682e+00 1 0 0
2598 2 1.3735509658150747e+01 1.9139609971594432e+01 1.9439181270690501e+01 0 0 0
1782 2 1.5521340487167727e+01 2.5888894283698555e+01 1.8735689288727514e+01 0 -1 0
2518 1 1.5633456974854681e+01 2.9958713337462513e+01 1.7415311784434191e+01 0 1 0
2213 2 1.5060102931479609e+01 2.6958781846534503e+00 7.7607858217112211e+00 0 1 1
1060 1 2.2981044580060328e+01 2.4999275131298504e+01 2.5454896407507011e+01 0 0 -1
1205 2 2.2363966004598851e+01 1.7143790579326037e+01 2.5595658453360695e+01 0 1 0
1182 2 6.3354120986825038e+00 2.2926107778393749e+00 5.3931361161703713e+00 0 1 1
2321 2 7.0731510134419224e+00 1.1759803535318710e+01 4.7671475987396867e+00 0 1 0
2509 1 2.1045769947895792e+01 2.2225059066315630e+01 2.6573881386302155e+01 0 0 0
2960 2 1.5171132437869414e+01 2.3962934723388472e+01 1.6058415479412329e+01 0 0 0
1162 1 4.2306611584993528e+00 1.5845705633894730e-01 2.9516085486368859e-01 0 0 1
2614 1 1.4738056184411690e+01 1.0754092347954797e+01 2.3660025738040030e+01 0 1 -1
770 2 1.3843964913114597e+01 2.0646116411617811e+01 8.3878315258660692e+00 0 -1 -1
2185 1 1.3443154442262632e+01 2.0513329318792724e+01 2.4944876587122646e+01 0 -1 -1
220 1 2.5894875233898276e+01 2.8192748405784176e+01 2.5883064349454596e+01 0 0 -1
1842 2 2.5124005669383042e+01 2.9456475109875729e+01 1.7150737963117177e+01 0 -1 0
1724 2 1.8559768994990559e+01 2.7606136228052701e+01 3.6156229742850057e+00 0 -1 2
300 2 2.2931148513656190e+01 2.8225144854675033e+01 2.1084316955428253e+01 0 -1 -1
4261 1 1.1815022083131225e+01 1.9131381303826615e+01 1.2433240512508297e+01 1 0 0
1558 1 1.5240738264010886e+01 2.8820353536887133e+01 2.0174686613955469e+01 0 0 0
218 2 4.6888308471465034e+00 1.3870633369447400e+01 7.6550011236373505e+00 0 -1 0
1544 2 2.7005217604892650e+01 3.1883952391571057e+01 1.5971522659032903e+01 0 -1 1
5295 2 1.0621037755177039e+00 7.3172221720801298e+00 4.8271904053013541e+00 1 0 0
459 2 1.4358329120032860e+01 1.5572104773510505e+01 8.2411395099958575e+00 0 -1 -1
4244 2 2.0389384865812161e+01 2.7332267916148854e+01 2.4913053741884198e+01 1 0 -1
2651 2 2.5639354621587241e+01 3.4342209335654985e+01 2.6988804678985080e+01 0 -2 0
5039 2 1.6107349229236306e+01 9.9900289900768353e+00 1.0088526913918095e+01 1 0 1
1274 2 9.2645549311223032e+00 2.7160057841354124e+01 2.9370604417731432e+00 0 -1 0
1073 2 1.8382001486398757e+01 3.2058733408961366e+01 2.0541430122559380e+01 0 0 0
6014 2 2.0759235496620914e+01 1.7351780589296308e+01 2.2872315746361014e+01 1 0 0
2563 1 1.8123638149567377e+01 1.5540197109867369e+01 2.3614944865263283e+01 0 1 0
1663 1 -8.6727134638448877e-01 2.5087828298774468e+00 1.6521865654486290e+00 0 0 1
1904 2 1.2469036120997259e+01 9.9722327533438886e+00 2.6453691094718369e+01 0 0 0
5177 2 8.9231640289143641e+00 2.3986517010834810e+01 4.6340455252492605e+00 1 -1 1
2014 1 1.5904005807294308e+01 3.2276249897303572e+01 1.8353683622536831e+01 0 0 0
1238 2 1.4092278947746802e+01 1.5241417791794985e+01 5.5296347929485012e+00 0 0 0
2090 2 1.2666012062097035e+01 3.0458170574434121e+01 1.3698837748865071e+01 0 -1 1
5994 2 7.9152349211816144e+00 2.3320794188018933e+01 7.5550076034476348e+00 1 -1 1
2585 2 7.1483238008223591e+00 1.3796308819116437e+01 1.5401546047764865e+00 0 1 1
2194 1 1.4475749153608902e+01 1.4046580798145129e+01 1.1032384832014781e+01 0 0 0
1559 2 1.5033471276721535e+01 2.8018137365270384e+01 1.9671833884383776e+01 0 0 0
1701 2 8.2798770293781736e+00 1.5099618471899146e+00 2.7467069644915725e+00 0 0 1
2549 2 2.2510123724794269e+01 2.0651858953222771e+01 2.4101750577183601e+01 0 1 0
3741 2 2.3764438270546709e+01 3.2634358377105805e+01 2.2935205800222633e+01 1 -1 -1
4598 2 1.5037185260105073e+01 1.3707580253797204e+01 2.4781894082668405e+01 1 0 -1
502 1 1.5872459149868817e+01 1.9558505062516524e+01 2.6011737214248381e+01 0 0 0
5013 2 9.8643388775494820e+00 9.8710742451671400e+00 1.5157351139775868e+01 1 0 0
1861 1 1.8032675505168779e+01 2.5804297624381739e+01 1.3086769365210429e+01 0 0 -1
1323 2 2.0337703130125202e+01 1.4269071377255774e+01 1.6794601961958303e+01 0 0 -1
1273 1 1.0090249004060352e+01 2.7658480169945076e+01 3.1268524016040087e+00 0 -1 0
1750 1 8.2565103846995704e+00 1.4283873624035349e+01 9.0568998322909398e+00 0 0 0
914 2 1.6609319200707581e+01 2.6849185405969866e+01 2.3230287035214452e+01 0 0 -2
5300 2 7.1483457105093020e+00 1.1447805948849462e+01 1.2531991255241252e+01 1 0 0
2244 2 8.0131318189653538e+00 5.9254941544405888e+00 2.1422079074841179e+01 0 0 0
1783 1 1.6108091784525193e+01 2.7881973394133020e+01 2.7372914708859430e+00 0 -1 0
2349 2 5.5715609841269345e+00 5.3943338131069662e+00 5.9000841317662478e-01 0 1 1
2312 2 1.8964436445240143e+01 3.2775214323658041e+01 2.6578316043066387e+01 0 0 -1
4603 1 6.5185919504959173e+00 1.2831394957797606e+01 1.5360248050546394e+01 1 0 0
158 2 2.4115024359968835e+01 2.2717423911464465e+01 2.3190123936309284e+01 0 -1 -1
118 1 5.6763001239696038e+00 4.5889217851632838e+00 6.1291487584046127e+00 0 1 0
2052 2 1.9041806982378755e+01 1.1194115011237109e+01 1.2662721901755688e+01 0 0 1
4272 2 5.8306174327597198e+00 3.4177586556555162e+00 1.1970393307604088e+01 1 1 0
558 2 3.1299749792370136e+01 3.3065734253402240e+01 2.5667726344928269e+01 0 0 -1
2258 2 2.3680327810068579e+01 2.8898859418529117e+01 1.2433349718537473e+01 0 -1 0
434 2 1.5194107410212983e+01 1.8751290972209002e+01 1.2174509700080776e+01 0 0 -1
1596 2 9.6310458206361993e+00 1.2844102658019892e+01 1.7821116381192358e+01 0 0 0
385 1 2.0829996336992387e+01 2.3148199489253660e+01 2.2302891114080083e+01 0 0 -1
1607 2 1.1339296067536290e+01 7.1236856912396860e+00 4.7055235477859236e+00 0 -1 1
965 2 2.5720698723660732e+01 1.5618955097225930e+01 2.6766320046214211e+01 0 -1 -1
41 2 1.8423504238156070e+01 1.5637057347630400e+01 9.2414938324107094e+00 0 0 -1
2766 2 2.0994750390203986e+01 2.4485445815470648e+01 1.9334673272309232e+01 0 -1 0
956 2 1.4918788515395484e+01 2.0750457395469056e+01 1.2145945158585404e+01 0 0 0
1870 1 1.4202244277024715e+01 4.4877524686799664e+00 4.1494821313577479e-01 0 0 1
1075 1 2.0916738225058044e+01 7.8698428678346843e+00 1.8088109047101618e+01 0 0 0
1723 1 1.9372990750502584e+01 2.8304248981880335e+01 3.6455342953577925e+00 0 -1 2
146 2 1.1049039824217274e+01 2.4425106287215819e+01 1.7815230419912286e+01 0 -1 -1
3638 2 2.0043922309773567e+01 1.6647483459035588e+01 8.4586008831069819e+00 1 -1 0
957 2 1.6201575937531310e+01 2.1252266497698283e+01 1.3102968507669404e+01 0 0 0
1946 2 1.1449354041483641e+01 2.0954886711551076e+01 1.6040585517524701e+01 0 0 0
3477 2 2.8159209484276042e+00 7.0900659085215523e+00 1.1372053157544164e+01 1 0 0
1976 2 1.8155777865970119e+01 2.5237760309481775e+01 3.5788472067405803e+00 0 -1 1
6015 2 2.2132105634966759e+01 1.6832492066730428e+01 2.3510588226665217e+01 1 0 0
2764 1 2.0612758654792451e+01 2.5007461079033327e+01 2.0087534875529130e+01 0 -1 0
526 1 1.4233886262242251e+01 1.7035660086371820e+01 2.5211053753022487e+01 0 0 0
915 2 1.7222471826983409e+01 2.8180393618520231e+01 2.2493273102890242e+01 0 0 -2
2839 1 1.6153828674788645e+01 4.5477686671780857e+00 1.0049123918233592e+01 0 0 1
5976 2 1.8281192232451083e+01 1.3905786265365551e+01 1.2943167770943642e+01 1 1 0
537 2 1.9884864810913022e+01 7.5918764005680996e+00 1.6672768435996932e+01 0 0 -1
2139 2 9.5585651506689207e+00 5.4976988170868513e+00 4.8938408714198118e+00 0 0 2
1814 2 9.8210260824004934e+00 6.9755124354072198e+00 1.9358780273734425e+01 0 1 0
2433 2 1.2484696170443328e+01 2.8117826398568550e+01 1.6363340980748795e+01 0 0 0
2416 1 1.7747820034118689e+01 1.2040595572492713e+01 1.4065960054577573e+01 0 1 -1
266 2 1.6419211775815285e+01 9.1098055706028003e+00 3.3375473012198853e+00 0 0 0
3470 2 2.1699274360261008e+01 1.2584841101042443e+01 2.5922282485815916e+01 1 0 -1
5367 2 7.1774130146066941e+00 1.6566841025170955e+01 1.4526661211103324e+01 1 0 0
2510 2 2.0707567652412365e+01 2.1419130733405090e+01 2.7022696608965962e+01 0 0 0
2884 1 8.0153275439075067e+00 7.9903371841232742e+00 2.4785105600033255e+01 0 1 0
2742 2 1.8285609537505053e+01 2.8371676976786297e+01 2.0565911032811755e+01 0 0 0
5991 2 1.5462065449108813e+01 2.5753015916459610e+01 2.4915773566780551e+01 1 0 0
4605 2 5.8358205973861246e+00 1.3158193259175942e+01 1.4674219685112115e+01 1 0 0
3671 2 6.1545151543949821e+00 1.1210866375460180e+01 6.8882914588703468e+00 1 0 0
3666 2 2.1450637371099624e+01 2.2842463339168347e+01 1.7824134850648520e+01 1 -1 0
2015 2 5.6505207912038955e+00 4.9436123779917711e+00 1.7818258636179944e+01 0 1 0
178 1 1.2418815611553951e+01 1.5509561614055169e+01 2.2691852534201370e+01 0 -1 0
2820 2 9.1801933139876439e+00 1.9659704538310937e+01 7.2164058804282041e+00 0 0 1
2546 2 1.7880538298022337e+01 2.7706549255209438e+01 2.4894335368587058e+01 0 0 0
1096 1 2.1479775676813624e+01 1.5915549648430906e+01 2.6549728862301830e+01 0 0 -1
28 1 1.7163623004541094e+01 3.0880986351194814e+01 1.2980863835812730e+01 0 -1 0
4487 2 1.6899933255356551e+01 2.5258663463046553e+01 5.2890681957293246e+00 1 0 0
2496 2 1.6586956848483393e+01 2.9090082954889489e+01 1.2047560012271676e+01 0 -1 1
2468 2 3.1865077318648023e+00 1.1174539802435164e+00 3.1983415820202317e+00 0 0 1
98 2 1.6449716052380097e+01 3.0310824627559303e+01 9.7061441571895433e+00 0 -2 1
4392 2 1.7595074612771356e+01 1.1407225674017129e+01 2.2244853185185303e+01 1 0 0
2411 2 2.1404826950409291e+01 2.6185542063741661e+01 4.7041713546289010e+00 0 0 1
1983 2 2.1967276267588652e+01 1.4120353410704425e+01 2.1245279441129039e+01 0 -1 0
2763 2 2.5466871523000991e+00 4.5237503198180002e+00 6.8252371239086340e+00 0 0 0
1028 2 5.0393649014898649e+00 1.0322087646101375e+01 2.0972876385417423e+00 0 0 0
1461 2 9.6135546578644053e+00 8.8832045049487096e+00 2.7546442479415876e+00 0 1 0
1792 1 3.8637940597281384e+00 1.0859196393234727e+01 8.6083093233932051e-01 0 0 1
1137 2 1.2889045854066632e+01 2.3121209683407255e+01 8.6920877616261816e+00 0 0 0
2616 2 1.5042707891190279e+01 1.1100697866402040e+01 2.4622982274557412e+01 0 1 -1
4604 2 7.2968765915845566e+00 1.3307044558961309e+01 1.5023717158473799e+01 1 0 0
370 1 1.8793513578480052e+01 1.5551549193798756e+01 3.2776374008365095e-01 0 -1 1
5950 1 9.3182999037210799e+00 1.6633016848813476e+01 1.9831162834112863e+01 1 0 1
967 1 2.1726804112426798e+01 1.3034621739543232e+01 2.4291739095240466e+01 0 0 0
5204 2 7.8361791581995544e+00 1.4785336116331990e+01 3.3801819839227512e+00 1 -1 0
5365 1 7.5753700581049603e+00 1.6694434366941049e+01 1.3631926270330135e+01 1 0 0
361 1 2.0346627476204318e+01 2.3373675256887303e+01 9.5102592742256338e+00 0 0 -1
1441 1 1.4222045408007975e+01 7.7141643450474264e+00 7.4531068228628792e+00 0 1 -1
279 2 2.3000821429292465e+01 1.8632058380684040e+01 1.4948522615830893e+01 0 0 0
381 2 1.1484342150961279e+01 4.8084640173641686e+00 1.2445288285743796e+01 0 0 -1
375 2 1.5498252784945528e+01 2.2767358231295429e+01 4.2741615935848980e+00 0 -1 0
1230 2 4.8560653622523375e+00 7.2746576267022345e+00 8.6043890696808294e+00 0 0 0
2611 1 1.9416316787519101e+01 2.9661827466335701e+01 1.8092480014109228e+01 0 0 1
1914 2 1.9063971825557289e+01 2.2405680986960004e+01 9.0016400485914783e-01 0 -1 1
1567 1 1.3092462569922660e+01 2.3122682065235832e+01 2.5266256521425159e+01 0 1 0
413 2 1.4999923072410603e+01 1.9126839243542268e+01 2.2713180239861529e+01 0 0 1
2520 2 1.4751407899456837e+01 2.9914579453553763e+01 1.6964702516410348e+01 0 1 0
723 2 1.0473843125097385e+01 8.5673806107847150e-01 4.0631164442368339e-01 0 0 0
1850 2 6.2114752675346665e+00 1.6561564952788196e+01 3.3999454875523751e+00 0 0 0
654 2 8.3090852493908880e+00 1.8774499483153029e+01 2.2202582499406796e+00 0 0 0
99 2 1.6360578614071283e+01 2.9881608403884695e+01 8.2281321456851586e+00 0 -2 1
4599 2 1.5383735108902805e+01 1.4438652700889559e+01 2.3467791685071127e+01 1 0 -1
127 1 1.7172134426244778e+01 1.9979158057574242e+01 8.4695189810820377e+00 0 1 0
1767 2 1.2463497246497898e+01 1.8141896187532524e+01 2.1186778301447195e+01 0 -2 1
2186 2 1.2678833050984714e+01 1.9955410534315391e+01 2.5253244129188545e+01 0 -1 -1
2116 1 1.3587598322898728e+01 7.6470942275738469e+00 1.0121266872927670e+01 0 0 1
5828 2 1.6274753839412313e+01 2.6496769211602050e+01 1.5790591333648827e+01 1 0 0
4439 2 4.8412474266165342e+00 1.3676721329322481e+01 1.2130581513512362e+00 1 0 1
527 2 1.5006803589828685e+01 1.6402631761907582e+01 2.5380458785177954e+01 0 0 0
1002 2 9.8079211137264792e+00 1.7536755650508148e+01 3.4175543537273509e+00 0 0 0
2320 1 7.5581067570248894e+00 1.1123788965610622e+01 4.1861826700472333e+00 0 1 0
482 2 8.0433279552413772e+00 1.9110212471365429e+01 9.0613087444749389e+00 0 -1 -1
1252 1 2.1056649707102032e+01 2.5893485793858307e+01 1.7690902300243092e+00 0 -1 1
3472 1 8.9563889964793901e+00 2.2292161796498625e+01 1.1566506099184972e+01 1 -1 0
4405 1 1.4015077457834881e+01 1.4324339698264330e+01 6.9407394778132030e+00 1 0 0
843 2 1.4211728508228937e+01 1.6894784677826618e+01 1.5580876682105197e+01 0 0 -1
159 2 2.3327706967218848e+01 2.3803016638662672e+01 2.3932109736878338e+01 0 -1 -1
1909 1 1.5465644621390631e+01 2.6580167716857403e+01 2.6803762998618296e+01 0 0 -2
5271 2 1.0715357594162400e+01 2.5058434670167927e+01 7.7431677118423048e+00 1 -1 0
948 2 1.6266657705528200e+01 1.1187772191885177e+01 1.3731117336081905e+01 0 -1 1
4531 1 1.0043487418032729e+01 1.2738919989621781e+01 2.5785688774053078e-01 1 0 0
2092 1 2.6474777807337208e+01 3.3406140866689306e+01 2.4208842922741468e+01 0 0 0
518 2 1.4424059520371959e+01 2.4459486973550266e+01 2.6947897174917861e+00 0 0 0
2795 2 1.8346195885839187e+01 1.0339339225569674e+01 1.8805096156375352e+01 0 2 0
175 1 1.4014876212021015e+01 2.9237900371794414e+01 1.0409650158557060e+01 0 -2 0
379 1 1.2314930902184249e+01 4.2265018040200140e+00 1.2374776289669406e+01 0 0 -1
3672 2 5.5989518950075539e+00 9.8961541815094183e+00 6.2629080209831098e+00 1 0 0
1568 2 1.3571038995843786e+01 2.3476991278843080e+01 2.6058087666091378e+01 0 1 0
4286 2 1.1464482583750394e+01 1.1660183814159268e+01 3.0593561083078362e+00 1 0 0
1788 2 8.2330999289982731e+00 1.0864073269563907e+01 8.9862510358824075e+00 0 0 1
1865 2 1.4046558981799784e+01 1.6603617863842665e+01 1.9595204550488440e+01 0 0 0
707 2 2.2841332139443608e+01 2.6934454097658087e+01 1.4112182858731586e+01 0 0 0
2626 1 2.5226087306093614e+01 3.0132784730837887e+01 2.2189409313704466e+01 0 -1 0
2907 2 1.7438547567315908e+01 1.5787886927841720e+01 8.8100767940409852e-01 0 0 0
2339 2 1.6907367421684135e+01 5.8772447552622609e+00 1.6970937686113594e+01 0 1 -1
360 2 1.1299700615168394e+01 2.1047358407525870e+01 6.1605870912916902e+00 0 0 2
2793 2 1.7642602340640426e+01 2.4484078078828109e+01 2.0746706659895658e+01 0 0 0
588 2 1.6355565287947556e+01 1.6901649468973488e+01 1.9127257865694865e+01 0 0 -1
804 2 2.4221825479224229e+01 1.5668451766073645e+01 2.0296135926102668e+01 0 0 0
1772 2 2.3571374030828832e+01 2.9042001486360046e+01 1.4716646135515056e+01 0 0 0
1301 2 1.4706763960569589e+01 2.5210646621834904e+01 8.7493063671120055e+00 0 0 0
778 1 6.5698573422653670e+00 4.1569146496589795e+00 3.4632885893198480e+00 0 0 0
4239 2 2.3446232287236086e+01 1.8408928866200405e+01 2.1188269483240820e+01 1 0 -1
1457 2 1.5153473465735992e+01 1.5080437305544569e+01 3.6682338167483772e+00 0 0 1
2858 2 1.7172533708009766e+01 2.0364590376448856e+01 1.9882833019977131e+01 0 0 0
2652 2 2.6247248769716123e+01 3.3419064577026255e+01 2.5898049624579325e+01 0 -2 0
1592 2 1.0436288479606178e+01 1.7786739689263683e+01 1.9142598142991432e+01 0 0 0
1692 2 1.2615720778232580e+01 2.8404552724779087e+01 7.9514359818773848e+00 0 -1 1
1040 2 1.0049123965709990e+01 1.2088696925450005e+01 1.4729271829284674e+01 0 2 -1
2214 2 1.3846845729489409e+01 3.2277837264998754e+00 8.6714532561619855e+00 0 1 1
2586 2 6.4529780043557707e+00 1.4868000789446961e+01 5.2017320362460595e-01 0 1 1
177 2 1.4266397249732890e+01 3.0180674771208373e+01 1.0454900569133162e+01 0 -2 0
876 2 5.9125500873315069e+00 6.5503273405529665e+00 2.0864705153226957e+01 0 1 -1
1078 1 2.2551977565537385e+01 2.6760252865621460e+01 8.6878407842139307e+00 0 -1 0
1789 1 2.3488097522175806e+01 2.2333646330434085e+01 1.3998455306234174e+01 0 -1 1
4477 1 2.0780112743425043e+01 2.4881877321569675e+01 2.6947878315664518e+01 1 0 -1
3006 2 9.1643222666686430e+00 3.4999385384878421e+00 8.0065801324228332e+00 0 1 1
2817 2 7.1601277322139474e+00 8.1763757844705669e+00 8.4473118574185300e+00 0 1 0
4270 1 5.0921153154545138e+00 3.9665358072356334e+00 1.1594323966507938e+01 1 1 0
923 2 1.2650703804873393e+01 1.5412512291326196e+01 1.7667467252944373e+01 0 0 0
2513 2 1.9367890799568769e+01 2.0139262299839082e+01 1.0910693615786242e+01 0 0 0
810 2 2.2405083768579388e+01 3.3052743575636924e+01 2.0801420384391065e+01 0 0 -1
748 1 1.5020576084828008e+01 1.1472970091391414e+01 2.6461740966707861e+01 0 0 -1
2187 2 1.4262577444142853e+01 2.0092142171508812e+01 2.5317062195550250e+01 0 -1 -1
5876 2 2.4205501860122755e+01 2.5461827217519769e+01 2.0741444968143256e+01 1 0 0
1794 2 3.9479613508402220e+00 1.1878235012614178e+01 9.6157985168983906e-01 0 0 1
206 2 1.2112824909409060e+01 4.7187223027058991e+00 1.5014093572552879e+01 0 0 -1
2219 2 8.3319605586768652e+00 6.4647495242786208e+00 1.7182633659868216e+01 0 1 0
1760 2 1.3381961193346218e+01 2.4436432568206556e+01 1.5301026539983972e+01 0 -1 0
1733 2 1.3264868780021434e+01 1.7289321701588616e+01 1.5625413477409578e+00 0 1 0
2741 2 1.7941987326493660e+01 2.9985632451150444e+01 2.0701390886140778e+01 0 0 0
366 2 1.5335319189781519e+01 8.5738443809618321e+00 1.6024414878141140e+01 0 0 0
291 2 9.4182063887884819e+00 1.0928944496666016e+01 2.5990601853967380e+01 0 -1 -2
652 1 9.2986229617596479e+00 1.8590799693011931e+01 2.3045312588609272e+00 0 0 0
1762 1 2.2590237530627867e+01 3.0220258108362465e+01 2.4790166069193770e+01 0 0 -1
1234 1 1.1970621448062763e+01 2.0460356589500154e+01 2.2669940861829733e+01 0 0 0
5967 2 1.4755983095111645e+01 2.1702343515861152e+01 2.1736316309946950e+01 1 0 0
207 2 2.1029082939124070e+01 3.2014340097755735e+01 1.5509199404729690e+01 0 -1 -1
749 2 1.4088418562618251e+01 1.1411828246475302e+01 2.6534240900019526e+01 0 0 -1
1275 2 1.0055982812504771e+01 2.8164275794935030e+01 4.0011481838252223e+00 0 -1 0
1641 2 2.0625301264453373e+01 3.3170514019057997e+01 1.9494539492845416e+01 0 0 0
771 2 1.2983751994292806e+01 2.0840870221048313e+01 9.7274393685861398e+00 0 -1 -1
29 2 7.2965022059027369e+00 3.6693922118382098e+00 1.3242867697398669e+01 0 0 0
3615 2 2.0833196121791236e+01 1.3241697020651873e+01 1.8826894007683364e+01 1 0 -1
4506 2 1.1437982967492296e+01 9.3922161843480048e+00 2.0275993092046726e+01 1 1 0
2748 2 2.5141313692900670e+01 2.3186695775196110e+01 1.9623358907426848e+01 0 0 -1