LAMMPS data file via write_data, version 15 Apr 2020, timestep = 500000

3072 atoms
2 atom types

1.1412663941267631e-01 3.0026067360582509e+01 xlo xhi
9.2353235858816163e-02 2.8248112764133360e+01 ylo yhi
1.0151453228401763e-01 2.7309930467711574e+01 zlo zhi
1.0199552911956221e+01 1.0209511280336647e+01 7.0625591668987386e+00 xy xz yz

Masses

1 16
2 2

Atoms # atomic

1 1 7.3864559842690038e+00 4.9614452578862922e+00 4.4880969623652609e+00 0 0 0
2 2 6.5626458032086994e+00 4.4994242367168198e+00 4.2086675792755450e+00 0 0 0
3 2 7.0728882025151441e+00 5.8441459541301333e+00 4.8423756150518722e+00 0 0 0
4 1 9.8982941585158493e+00 7.0887831743682383e+00 1.0787046157700338e+01 0 0 0
5 2 1.0158046473961141e+01 6.9277451430178445e+00 1.1742431647544517e+01 0 0 0
6 2 9.6789892219943727e+00 8.0385743959234244e+00 1.0740590179663219e+01 0 0 0
7 1 9.9289370841543771e+00 1.2140794831868906e+01 4.1978276499980529e+00 0 0 0
8 2 1.0344072837087570e+01 1.1716915870607529e+01 5.0291429916217956e+00 0 0 0
9 2 9.8119743038797793e+00 1.3098448377251284e+01 4.3529014166725419e+00 0 0 0
10 1 1.2510654452461649e+01 1.4299301739747431e+01 1.0846767292503307e+01 0 0 0
11 2 1.3228023474776688e+01 1.4460387134905023e+01 1.0200436072274762e+01 0 0 0
12 2 1.1755696818145688e+01 1.3795809495627767e+01 1.0370555619193643e+01 0 0 0
13 1 1.5102386744096419e+01 5.2007479028045775e+00 4.0541581444170980e+00 0 0 0
14 2 1.5367315164219706e+01 4.8203292156980524e+00 4.9798776931106881e+00 0 0 0
15 2 1.4820356310196537e+01 6.1478161714673378e+00 4.1769260596411630e+00 0 0 0
16 1 1.7531224562218924e+01 7.0683592425765553e+00 1.0868151070335994e+01 0 0 0
17 2 1.7990422026862063e+01 6.7649249246424459e+00 1.1669452043290720e+01 0 0 0
18 2 1.8294516517731580e+01 7.1395796563369096e+00 1.0173638853655447e+01 0 0 0
19 1 1.7593836578701939e+01 1.2486819507493578e+01 4.1608304312143574e+00 0 0 0
20 2 1.8301594700727165e+01 1.2841928765541979e+01 3.5239984349184095e+00 0 0 0
21 2 1.8030254188572599e+01 1.2011847205453121e+01 4.8993085571069379e+00 0 0 0
22 1 2.0015537011279754e+01 1.4288128130471350e+01 1.0821587062700889e+01 0 0 0
23 2 2.0901736838305958e+01 1.4535925820783925e+01 1.0477600556471508e+01 0 0 0
24 2 1.9724645748388504e+01 1.5164967756590780e+01 1.1141762352837295e+01 0 0 0
25 1 1.1798326896553219e+01 8.1867878242836163e+00 6.4119972162045684e+00 0 0 0
26 2 1.1358181666069401e+01 8.9033298365703093e+00 5.9225101607369641e+00 0 0 0
27 2 1.1192555396333109e+01 7.6200905137805712e+00 6.9049663101273939e+00 0 0 0
28 1 1.4431362057020252e+01 9.9649000810470110e+00 1.3261440056462543e+01 0 0 0
29 2 1.4889022320837556e+01 9.4329630829612920e+00 1.2552610941845463e+01 0 0 0
30 2 1.3656125316860921e+01 1.0492682401404764e+01 1.2815387637139606e+01 0 0 0
31 1 1.4335359389637871e+01 1.5182069522166492e+01 6.2494576917062590e+00 0 0 0
32 2 1.4496146756020886e+01 1.4691233170899375e+01 5.4150439903555796e+00 0 0 0
33 2 1.3539053689751716e+01 1.5713683987127538e+01 5.9342012651581157e+00 0 0 0
34 1 1.6750637192941937e+01 1.6952163702797215e+01 1.3429802388770854e+01 0 0 0
35 2 1.5892653403322090e+01 1.7481514622041203e+01 1.3225677831411375e+01 0 0 0
74 2 1.5530545647517764e+00 1.5184829758526137e+00 4.2742854753638937e-01 0 0 0
107 2 1.0855171442459669e+01 1.3973399917921288e+01 1.3563031489902970e+01 0 0 0
38 2 1.8251712672374389e+01 8.6497558829835324e+00 6.0739714299495828e+00 0 0 0
191 2 2.1375339591059813e+01 1.2713632220686474e+01 1.3532153035215050e+01 0 0 0
1275 2 2.2537529854728433e+01 1.6949420302848861e+01 4.9898575220180961e+00 0 0 0
1152 2 2.4215003611549179e+01 3.0994141675311731e+01 1.2029455536898370e+01 0 0 0
1101 2 1.9142814449111150e+01 2.6594097353091101e+01 3.0151942002755810e-01 0 0 0
284 2 2.0078768946162583e+01 1.2746223019447591e+01 2.0479891008523428e+00 0 0 0
44 2 2.0763304099455269e+01 1.5609979180604121e+01 5.8558034270898984e+00 0 0 0
1577 2 1.6326040559841012e+01 5.9388943929310374e+00 1.0799822469825310e-01 0 0 1
46 1 2.4162040538151807e+01 1.7140356476873102e+01 1.2813890739192219e+01 0 0 0
47 2 2.3287542676972130e+01 1.7495990274422397e+01 1.2545382008308190e+01 0 0 0
215 2 2.1859121640758140e+01 1.1532188153637437e+01 1.0012585413392749e+01 0 0 0
49 1 5.5229157553573893e+00 3.5924946109634615e+00 3.3056254721064882e+00 0 0 0
50 2 5.7325402207150429e+00 2.7761371563174233e+00 2.8698040967358249e+00 0 0 0
51 2 4.6613581249457656e+00 3.4609821516498807e+00 3.7446067441655422e+00 0 0 0
52 1 7.9582161215913327e+00 5.3695564210877347e+00 9.5655413523276422e+00 0 0 0
53 2 7.3877666643917923e+00 5.9436819521937601e+00 8.9788187744694330e+00 0 0 0
54 2 8.6274234779755670e+00 5.9811900325553751e+00 9.9658982640687377e+00 0 0 0
55 1 7.7283282708185483e+00 1.0781036028943200e+01 3.0014075842290269e+00 0 0 0
56 2 7.9663141012414389e+00 9.8361685866445718e+00 2.8144958101002695e+00 0 0 0
57 2 8.5835939607356071e+00 1.1109611250535558e+01 3.3772368637172141e+00 0 0 0
58 1 1.0424800631991801e+01 1.2633113426863368e+01 9.6446268068091783e+00 0 0 0
59 2 9.8904724497662908e+00 1.2938659488868074e+01 8.9439602238198095e+00 0 0 0
60 2 1.0766281779056680e+01 1.1789102214591047e+01 9.2555593669834213e+00 0 0 0
61 1 1.2926225229355031e+01 3.7335753908290101e+00 3.1217789089450090e+00 0 0 0
62 2 1.3770479591408565e+01 4.1901969654653497e+00 3.3775667752374021e+00 0 0 0
63 2 1.2247488532504851e+01 4.2177340731322355e+00 2.5920641499001955e+00 0 0 0
64 1 1.5114076874207719e+01 5.5258332904027796e+00 9.5075518934153571e+00 0 0 0
65 2 1.5894113798454720e+01 5.9652576613042978e+00 9.8693833203370787e+00 0 0 0
66 2 1.5409766544835273e+01 4.6773145797018190e+00 9.1256920798799346e+00 0 0 0
67 1 1.5554343930071077e+01 1.0800916844453358e+01 2.9051983759739617e+00 0 0 0
68 2 1.6335771904741755e+01 1.1329528782610170e+01 3.1620967030925251e+00 0 0 0
69 2 1.5888752484283735e+01 1.0016735339913673e+01 2.3634298386356694e+00 0 0 0
70 1 1.7996749908881696e+01 1.2650807336413214e+01 9.6823412810746348e+00 0 0 0
71 2 1.7563079457144333e+01 1.3073944205621448e+01 8.9560583804220588e+00 0 0 0
72 2 1.8648456909691191e+01 1.3289432755506233e+01 1.0103614443907077e+01 0 0 0
114 2 1.4611247271556095e+01 5.8155760357962789e+00 1.3149399374533447e+01 0 0 0
185 2 1.9375855726957205e+01 6.8343411268976411e+00 1.3307819283692721e+01 0 0 0
846 2 8.7379091902738342e+00 1.7336157489156520e+01 8.1308808235668906e+00 0 0 0
277 1 1.7068271613517815e+01 6.1708507563720847e+00 2.7662040188549701e+00 0 0 0
77 2 1.4689216898333962e+01 2.9929230980314138e+01 7.9198011709534253e+00 0 -1 0
212 2 1.8494771929517491e+01 9.0060638384603742e+00 2.0102145086287484e+00 0 0 0
1082 2 8.5547058098670146e+00 1.8182614237893503e+01 2.9901111544478665e-01 0 0 0
1023 2 2.0640512307922457e+01 1.9672640539454218e+01 3.8629288222819580e-01 0 0 0
81 2 4.6783270074118821e+00 7.4844274675577713e+00 1.0803993287663085e+00 0 0 0
82 1 6.3003527544690048e+00 9.3996882492015494e+00 7.6832499030294272e+00 0 0 0
888 2 2.2604428757267918e+01 2.6671310867168923e+01 1.3348664821245015e+01 0 0 0
84 2 7.1370215452631998e+00 9.0388318505928638e+00 8.0636847738284096e+00 0 0 0
85 1 8.4814569646714819e+00 7.9983196388023847e-01 7.4678359962478402e-01 0 0 0
43 1 2.1425798674576448e+01 1.5176424901567838e+01 6.3877771802166476e+00 0 0 0
87 2 8.2730194601140248e+00 1.3299231634095003e+00 1.5409254853023981e+00 0 0 0
88 1 1.1283321174513279e+01 2.8102853471017015e+00 7.7366706370387108e+00 0 0 0
89 2 1.2187635639823840e+01 2.3779109424489655e+00 7.8908064273279752e+00 0 0 0
90 2 1.1459804790320364e+01 3.3874725091735987e+00 6.9556430845650352e+00 0 0 0
91 1 1.1576794171701094e+01 7.7209961480906575e+00 8.3062582569890953e-01 0 0 0
285 2 2.0556029388580946e+01 1.3436144922123312e+01 3.2523059172539188e+00 0 0 0
93 2 1.2322002101517525e+01 7.1316547973254494e+00 1.1255397729371395e+00 0 0 0
94 1 1.4009055588757844e+01 9.8293430761090850e+00 7.6390436454096893e+00 0 0 0
95 2 1.4735528757614540e+01 9.2658176068961851e+00 8.0681702095416412e+00 0 0 0
96 2 1.3421273824337531e+01 9.2193692218074101e+00 7.1623355377395850e+00 0 0 0
97 1 5.4628335988092314e+00 4.2001007041723746e+00 6.5232003884684220e+00 0 0 0
98 2 5.7489089486797269e+00 4.7472034731232480e+00 7.2817802618995540e+00 0 0 0
99 2 4.7809517490249966e+00 3.5280689466215058e+00 6.8431575426420110e+00 0 0 0
100 1 7.9568443170051317e+00 6.3320457293938874e+00 1.2950382590019556e+01 0 0 0
101 2 7.6561907325677288e+00 6.8664674786997839e+00 1.2150757462414475e+01 0 0 0
102 2 8.4980293540064675e+00 5.6250699169958978e+00 1.2591801575983686e+01 0 0 0
103 1 7.8836226672487495e+00 1.1318826338368686e+01 6.0240453184703133e+00 0 0 0
104 2 7.3996595299036141e+00 1.1816894741820382e+01 5.3267359992776129e+00 0 0 0
105 2 7.2995605476254344e+00 1.0710035905036440e+01 6.6116833133604764e+00 0 0 0
106 1 1.0468767193575223e+01 1.3306701933769553e+01 1.2936269868512817e+01 0 0 0
279 2 1.7498179060367519e+01 5.7454155801752815e+00 2.0045010356565380e+00 0 0 0
108 2 1.1132472098090656e+01 1.2584290225493328e+01 1.2861968214333377e+01 0 0 0
109 1 1.2949088298643852e+01 4.2202602047244531e+00 6.0707328941744443e+00 0 0 0
110 2 1.3427830385319254e+01 3.4688141567933393e+00 5.6252298781879491e+00 0 0 0
111 2 1.2571741418890502e+01 4.7034043756472812e+00 5.3429370959386713e+00 0 0 0
112 1 1.5378683797174480e+01 6.3136511126591373e+00 1.2726856363437696e+01 0 0 0
1016 2 1.5834531177280512e+01 2.6230762124510409e+01 5.2666637489420731e-01 0 0 0
42 2 2.0856817564063284e+01 1.0433907648609193e+01 1.2662560880572187e+01 0 0 0
115 1 1.5448048378667579e+01 1.1566531673807315e+01 6.0279659417185805e+00 0 0 0
116 2 1.4672647701490870e+01 1.1131974184997150e+01 6.4495806977394317e+00 0 0 0
117 2 1.5778214452878132e+01 1.2086523053984028e+01 6.8261614247715805e+00 0 0 0
118 1 1.7968279679937780e+01 1.3416608662714944e+01 1.3087527794965338e+01 0 0 0
806 2 2.4518339251083411e+01 2.2504148423992969e+01 6.8658363448403801e+00 0 0 0
120 2 1.7519338244228521e+01 1.3930029034381066e+01 1.2426722944127681e+01 0 0 0
121 1 3.2765571698949429e+00 2.8059837313394222e+00 4.5321117507291646e+00 0 0 0
1151 2 2.4397979927280701e+01 3.0063144169322893e+01 1.3113921613507696e+01 0 0 0
123 2 3.7398453051259710e+00 2.0233254960456657e+00 4.9083327848173095e+00 0 0 0
124 1 5.9435916970993539e+00 4.6125487188445202e+00 1.1194940409518315e+01 0 0 0
125 2 6.6877768366235522e+00 4.8820276513685155e+00 1.0629477880688762e+01 0 0 0
126 2 6.3098484537910524e+00 3.8328726551664083e+00 1.1600336510110925e+01 0 0 0
127 1 5.4782458261151730e+00 1.0307527084136591e+01 4.4742702554800733e+00 0 0 0
812 2 2.7419648491345548e+01 2.9585368549516200e+01 7.0957228617823649e+00 0 0 0
129 2 6.3349975252015094e+00 1.0369049230518636e+01 4.0112182968868915e+00 0 0 0
130 1 8.6008139962891779e+00 1.1464859876965617e+01 1.1303996076995565e+01 0 0 0
851 2 1.1611147424904855e+01 2.4453745624361119e+01 7.0188513177603618e+00 0 0 0
132 2 9.2313115933661454e+00 1.1808592809453495e+01 1.0627254740186574e+01 0 0 0
133 1 1.0794081585249813e+01 2.8001024336659768e+00 4.4550363352898126e+00 0 0 0
134 2 1.1118417713815131e+01 1.9815487367693390e+00 4.8743240514205670e+00 0 0 0
135 2 1.1643299222608075e+01 3.1395054103041518e+00 4.1166498882611915e+00 0 0 0
136 1 1.2913293895373934e+01 4.5890126064705647e+00 1.1232421420428070e+01 0 0 0
137 2 1.3575208930076306e+01 5.0633033107470062e+00 1.0706364629210446e+01 0 0 0
138 2 1.2611232548500192e+01 5.1756339531240023e+00 1.1954176763699817e+01 0 0 0
139 1 1.2976121723466600e+01 9.8112529693476223e+00 4.1428837186485152e+00 0 0 0
140 2 1.3754567056446417e+01 1.0310380494904260e+01 3.8736631617980306e+00 0 0 0
141 2 1.3375062543368294e+01 9.0024039894149386e+00 4.4419433034057079e+00 0 0 0
142 1 1.5862966100721112e+01 1.1940635993553267e+01 1.1108150633762333e+01 0 0 0
143 2 1.6620681883266876e+01 1.2311539732706812e+01 1.0527471522416297e+01 0 0 0
144 2 1.6235347960256640e+01 1.1176402404058287e+01 1.1550120560289512e+01 0 0 0
145 1 6.8105417582696823e+00 1.9412558969125677e+00 5.3262775496740575e+00 0 0 0
146 2 1.7728555536751863e+01 2.9669540027999808e+01 5.9163725944374441e+00 0 -1 0
147 2 6.4672454765302838e+00 2.7181515557394453e+00 5.7916105799801558e+00 0 0 0
148 1 9.2100628498150421e+00 4.0645015973817262e+00 1.2037126687588772e+01 0 0 0
149 2 9.4895990370149441e+00 4.1196557830043137e+00 1.1101865829818372e+01 0 0 0
150 2 1.0003432258831941e+01 3.7780906567298724e+00 1.2482301781426337e+01 0 0 0
151 1 9.4023848597947310e+00 9.1712686074140279e+00 5.1154764950234641e+00 0 0 0
152 2 8.9453368451898481e+00 1.0039197333181377e+01 5.3732795281787231e+00 0 0 0
153 2 9.7461666167669314e+00 9.3294658153177643e+00 4.2098561304399729e+00 0 0 0
154 1 1.2209057140856206e+01 1.1076940891394418e+01 1.2157147565700166e+01 0 0 0
155 2 1.1525466026144578e+01 1.0360035722483197e+01 1.2156235975590608e+01 0 0 0
156 2 1.2266097486800541e+01 1.1333234136429935e+01 1.1197847264648598e+01 0 0 0
157 1 1.4184580372988151e+01 1.8788000144972059e+00 5.2348608832507626e+00 0 0 0
158 2 1.4927386205078282e+01 1.6649404781652102e+00 5.7940342207995412e+00 0 0 0
159 2 1.4591212839118120e+01 1.9189022665864996e+00 4.3770757189092757e+00 0 0 0
160 1 1.6810549450639513e+01 4.0660104667872492e+00 1.1915968915463328e+01 0 0 0
161 2 1.6385170650039591e+01 4.8860237349299460e+00 1.2328336603169499e+01 0 0 0
162 2 1.6221060259190168e+01 3.2886603717999168e+00 1.2013517827307970e+01 0 0 0
163 1 1.7125580646188709e+01 9.4614675240685884e+00 5.2696340427242587e+00 0 0 0
164 2 1.6490204180691599e+01 1.0201552911934755e+01 5.5476548524946212e+00 0 0 0
165 2 1.7298230932545422e+01 9.5883646957321993e+00 4.3057551413435506e+00 0 0 0
166 1 1.9230214431263249e+01 1.1196455371364831e+01 1.1785754615728555e+01 0 0 0
167 2 1.8964444897016890e+01 1.2086267761324526e+01 1.2146141847109375e+01 0 0 0
168 2 1.9724198193408370e+01 1.1304192474813975e+01 1.0936531993679743e+01 0 0 0
169 1 9.4251560168020294e+00 4.6294083974634210e+00 5.9483915177961970e+00 0 0 0
170 2 9.9736449722628588e+00 3.9937272844897054e+00 5.4001149900187322e+00 0 0 0
171 2 8.6087238019824071e+00 4.6031660777696297e+00 5.3999267617011428e+00 0 0 0
172 1 1.1340865180436181e+01 6.2794049041584579e+00 1.3077430390111612e+01 0 0 0
48 2 2.3833367608691781e+01 1.6415848533089928e+01 1.3384375182920206e+01 0 0 0
1133 2 1.4975658627844973e+01 2.2440408455642988e+01 1.1857336582934728e+01 0 0 0
175 1 1.1702446505107654e+01 1.1299197162089811e+01 6.0182806593298803e+00 0 0 0
176 2 1.2274562989997994e+01 1.1074228650583462e+01 5.3011923516925412e+00 0 0 0
177 2 1.1983716368125863e+01 1.2158827021699986e+01 6.4603721157559928e+00 0 0 0
178 1 1.4239471416991609e+01 1.3242243518291705e+01 1.2988184687735297e+01 0 0 0
179 2 1.3540949220189480e+01 1.3541094631188258e+01 1.2415687597792090e+01 0 0 0
180 2 1.4828567973966637e+01 1.2822725755135057e+01 1.2312739370993469e+01 0 0 0
181 1 1.6203455900576522e+01 4.0648722140589220e+00 6.1588566038732031e+00 0 0 0
182 2 1.6729003470680333e+01 3.4890477830510487e+00 5.6579153341394477e+00 0 0 0
183 2 1.6756648131760741e+01 4.7094224146388379e+00 6.6581279636977104e+00 0 0 0
184 1 1.9046740007525045e+01 6.0076940479781236e+00 1.2924520842259652e+01 0 0 0
815 2 2.9065574031812027e+01 3.0576793945041572e+01 1.3280622006580614e+01 0 0 0
848 2 8.7080441224417147e+00 2.2510010189633171e+01 1.5285776961144899e+00 0 0 0
187 1 1.9118066756424959e+01 1.1534960199319329e+01 6.2459907135030450e+00 0 0 0
188 2 1.8908652062097211e+01 1.0870644308284461e+01 6.8998170982185583e+00 0 0 0
189 2 1.9410090580725601e+01 1.2316604261077053e+01 6.8152421483695873e+00 0 0 0
190 1 2.1829144147747179e+01 1.3205309751679243e+01 1.2774476983970754e+01 0 0 0
73 1 1.2723379770652703e+00 9.3910370844509594e-01 1.1376506133284083e+00 0 0 0
192 2 2.1098676675196366e+01 1.3536013403727495e+01 1.2149806602511172e+01 0 0 0
193 1 8.3750446057784433e+00 2.4249387568203975e+00 2.9994288169547847e+00 0 0 0
194 2 7.8605185108244751e+00 2.5293002533731377e+00 3.8282372324977327e+00 0 0 0
195 2 9.2846073428211628e+00 2.2098531415951497e+00 3.2044736632817288e+00 0 0 0
196 1 1.0690525623390561e+01 4.4628899866627254e+00 9.6984397678609540e+00 0 0 0
197 2 1.0921213111703411e+01 3.7961177068807550e+00 8.9406769231982093e+00 0 0 0
198 2 1.1475564365632911e+01 4.4871578010046047e+00 1.0270081077116185e+01 0 0 0
199 1 1.0795702889979591e+01 9.6849921264511316e+00 2.4828095224399656e+00 0 0 0
200 2 1.0967954910750672e+01 8.8445924166005465e+00 1.9957124063609142e+00 0 0 0
201 2 1.1645234066509150e+01 9.9669833720496008e+00 2.8141881132529698e+00 0 0 0
202 1 1.3447213980107771e+01 1.1756302677970508e+01 9.6837029496214271e+00 0 0 0
203 2 1.4315824448619269e+01 1.1976254627677784e+01 1.0125092693900616e+01 0 0 0
204 2 1.3642165419089961e+01 1.0977684761390115e+01 9.1123530309165179e+00 0 0 0
205 1 1.5616517684126007e+01 2.7210831164656994e+00 2.6684515305065539e+00 0 0 0
327 2 1.1001044588306307e+01 3.7374833069718840e+00 8.8082685810700856e-01 0 0 0
37 1 1.9113412694092347e+01 8.0993606356447323e+00 6.2759866120920371e+00 0 0 0
208 1 1.8383656533900947e+01 4.1383093860752949e+00 9.7721573540257172e+00 0 0 0
209 2 1.7820006122653837e+01 3.9456553134779373e+00 1.0582259769431605e+01 0 0 0
39 2 1.8757683871043049e+01 7.4683348575922102e+00 6.9408199307791660e+00 0 0 0
211 1 1.8405552940051258e+01 9.6443920135936612e+00 2.7037770896550297e+00 0 0 0
2384 2 1.4310737261283270e+01 2.6099310061649916e+01 1.3574661605848076e+01 0 0 0
213 2 1.8273054351471792e+01 1.0490072993146498e+01 2.2989648636384246e+00 0 0 0
214 1 2.0942816847328274e+01 1.1430330808024769e+01 9.6090318192166801e+00 0 0 0
119 2 1.7295946767621295e+01 1.2808436172846923e+01 1.3407753683865877e+01 0 0 0
843 2 6.7492944402284021e+00 1.5522712446378636e+01 3.9543164260830033e-01 0 0 0
217 1 5.8551022954503678e+00 1.4210880046720775e+00 1.6688727082596149e+00 0 0 0
218 2 5.0305571945907888e+00 9.0795580155487854e-01 1.6181422027800849e+00 0 0 0
219 2 6.0848387000151876e+00 1.6966640105594937e+00 7.7250860246160336e-01 0 0 0
220 1 8.1327025066960790e+00 3.1143368289701927e+00 8.2858194511057821e+00 0 0 0
221 2 8.0780951725201184e+00 3.8274750254885115e+00 8.9648440691602893e+00 0 0 0
222 2 8.7447174065881654e+00 3.5310465403416282e+00 7.6228023948100532e+00 0 0 0
223 1 8.2245494455199406e+00 8.3436215444796655e+00 2.1200889274648933e+00 0 0 0
224 2 8.7041053336275898e+00 7.5372586527300278e+00 2.4108635422133822e+00 0 0 0
225 2 8.5249212461469117e+00 8.3499405842770624e+00 1.1709230196798290e+00 0 0 0
226 1 1.0727302546397695e+01 1.0116875332687121e+01 8.5186990292588565e+00 0 0 0
227 2 1.1257918492744558e+01 9.5249906745492918e+00 9.0477660289623039e+00 0 0 0
228 2 1.1043227369652131e+01 1.0144848639268606e+01 7.6190830246502594e+00 0 0 0
229 1 1.3240640681789401e+01 1.5687347779598011e+00 1.3774034831919904e+00 0 0 0
230 2 1.2369768466164407e+01 1.0719944399050938e+00 1.4962595227190432e+00 0 0 0
231 2 1.3138190881706540e+01 2.2598847414435848e+00 2.0283826652021615e+00 0 0 0
232 1 1.5617155666177654e+01 3.1163318405462874e+00 8.5788603603522073e+00 0 0 0
233 2 1.6375512431706916e+01 2.6973250294829976e+00 9.0209392481796105e+00 0 0 0
234 2 1.5753141115267260e+01 3.2103980870724662e+00 7.6067207666528596e+00 0 0 0
235 1 1.5622875952751489e+01 8.3924489703102569e+00 1.5122786760484381e+00 0 0 0
236 2 1.5849332484714994e+01 8.7513274432587309e+00 6.4271131017835403e-01 0 0 0
237 2 1.6387951739858494e+01 7.8864074163301723e+00 1.7780527076594526e+00 0 0 0
238 1 1.8294660210408217e+01 1.0178122238025072e+01 8.7441990414409627e+00 0 0 0
239 2 1.9154282205448524e+01 9.6903387862249044e+00 8.9375070601494109e+00 0 0 0
240 2 1.8291587125853368e+01 1.0990720646711303e+01 9.2604336995388703e+00 0 0 0
241 1 7.6341051138233098e+00 4.8791903171697069e+00 8.0086904064291042e-01 0 0 0
242 2 7.9253843885873190e+00 4.1966072544243742e+00 1.4128609190484369e+00 0 0 0
243 2 7.0274151171158845e+00 5.4406903199974455e+00 1.3499935034355528e+00 0 0 0
244 1 9.9657911802932571e+00 6.5036870301339400e+00 7.5354593732404771e+00 0 0 0
245 2 1.0110577680228358e+01 5.8937280383289501e+00 8.3068230609934517e+00 0 0 0
246 2 9.7852510516924411e+00 5.9035891320136056e+00 6.7841691324559230e+00 0 0 0
247 1 9.8969119011019444e+00 1.1543835342216216e+01 7.5798928470971483e-01 0 0 0
248 2 9.3739953298064034e+00 1.2173602165144754e+01 1.2927995701981809e+00 0 0 0
249 2 1.0300000893852479e+01 1.0931743079122677e+01 1.4145857290515105e+00 0 0 0
250 1 1.2548415382706235e+01 1.3181225059849897e+01 7.5090332460227476e+00 0 0 0
251 2 1.2834693070276392e+01 1.2805162482697272e+01 8.3544822889541237e+00 0 0 0
252 2 1.3259933875445194e+01 1.3774875727727572e+01 7.2077796728844010e+00 0 0 0
253 1 1.5129149401622577e+01 4.7164752137141059e+00 7.6046855223306731e-01 0 0 0
254 2 1.5401482196302817e+01 4.0134759923751471e+00 1.3792856169505527e+00 0 0 0
255 2 1.4512714506495424e+01 5.2886938278744342e+00 1.3127772548097612e+00 0 0 0
256 1 1.7514746598129889e+01 6.1786050765057583e+00 7.6386795287010267e+00 0 0 0
257 2 1.8046352316060933e+01 5.7325923831378294e+00 8.3149688552686687e+00 0 0 0
258 2 1.7060709530665612e+01 6.9783983195060078e+00 8.0143052722571753e+00 0 0 0
259 1 1.7581066782122278e+01 1.1800742405441602e+01 1.0277753791878017e+00 0 0 0
260 2 1.6944704649366294e+01 1.2459654224814637e+01 1.1908792272228881e+00 0 0 0
282 2 2.0388748044014861e+01 7.7400093808492230e+00 1.0161174519690530e+01 0 0 0
262 1 2.0036091798583620e+01 1.3589794917999230e+01 7.9331454163671467e+00 0 0 0
263 2 2.0424600013092494e+01 1.2997120682900956e+01 8.6447668983159218e+00 0 0 0
264 2 2.0756224786982997e+01 1.4042089807122601e+01 7.4084167418573150e+00 0 0 0
265 1 9.6649639611050659e+00 6.0578500087946239e+00 2.8757151139264581e+00 0 0 0
266 2 8.9397584878695984e+00 5.5174747126274672e+00 3.2427780421062287e+00 0 0 0
267 2 1.0045615137265562e+01 5.3526413341074690e+00 2.3033651442400545e+00 0 0 0
268 1 1.2195946908059843e+01 7.9713613956842639e+00 9.6211522732013304e+00 0 0 0
269 2 1.2645910686169319e+01 7.4712386893198346e+00 8.9217588879395393e+00 0 0 0
270 2 1.1544962951985502e+01 7.4400043560127518e+00 1.0141377362436547e+01 0 0 0
271 1 1.2072088643244342e+01 1.2959776392675513e+01 2.8877350685228378e+00 0 0 0
272 2 1.2827237081600346e+01 1.2993334256289677e+01 3.5028210994519902e+00 0 0 0
273 2 1.1302706311406062e+01 1.2610557882637444e+01 3.4587675293920896e+00 0 0 0
274 1 1.4609059543075643e+01 1.5039550577602315e+01 9.6317784540495932e+00 0 0 0
275 2 1.4439269801947171e+01 1.5987235564321578e+01 9.3167867378864475e+00 0 0 0
276 2 1.5361884232375710e+01 1.5146057493201171e+01 1.0261303675745728e+01 0 0 0
210 2 1.9270097055114903e+01 4.2059250108632096e+00 1.0135335437164107e+01 0 0 0
278 2 1.6377400423646129e+01 5.5452698753960457e+00 3.1946016647388524e+00 0 0 0
1150 1 2.4846350801970580e+01 3.0364178778158042e+01 1.2350721769459437e+01 0 0 0
280 1 1.9736552982164341e+01 7.5227006438024979e+00 9.5083237493413293e+00 0 0 0
1232 2 2.3346632511848519e+01 2.2768756957563440e+01 1.1999901340110040e+00 0 0 0
1011 2 1.3330594070387574e+01 1.9548219126420914e+01 3.6117655406375809e-01 0 0 0
283 1 1.9718438179449677e+01 1.3276465342188429e+01 2.7836979178152443e+00 0 0 0
468 2 2.0311565919127688e+01 9.0615280670671776e+00 7.2214726903818738e+00 0 0 0
1053 2 2.5463453199168690e+01 2.7202938894453435e+01 3.1920342005131581e+00 0 0 0
286 1 2.2331157654695325e+01 1.4799595950055865e+01 9.4912441880776885e+00 0 0 0
1135 1 1.4695850246044198e+01 2.8624690083365831e+01 5.5175383646949454e+00 0 0 0
288 2 2.2061819236827908e+01 1.5565912384533769e+01 8.8952953092815239e+00 0 0 0
289 1 5.9486035927336536e+00 6.6460625788123435e+00 2.1390416771887555e+00 0 0 0
290 2 5.8899538071523745e+00 6.4758617492040695e+00 3.1246383221878009e+00 0 0 0
291 2 6.6820797801684346e+00 7.3322860951689357e+00 2.1742034625716746e+00 0 0 0
292 1 8.4808253457026161e+00 8.5836021486581870e+00 8.7484837481929159e+00 0 0 0
293 2 8.8016353011186848e+00 7.7139324789854928e+00 8.4643483687252843e+00 0 0 0
294 2 9.2817609811736759e+00 9.0902331448798748e+00 8.5142349758557661e+00 0 0 0
295 1 8.4484499040328398e+00 1.3793333239847463e+01 1.8712317685563440e+00 0 0 0
296 2 8.1134650555776382e+00 1.3570925032339796e+01 2.7537183712243980e+00 0 0 0
297 2 7.6149085825645439e+00 1.4055153789339933e+01 1.4352353415048296e+00 0 0 0
298 1 1.1073074160513590e+01 1.5861764257275174e+01 8.8697933377020899e+00 0 0 0
299 2 1.1427946002831021e+01 1.5008479559399744e+01 8.5933158431848256e+00 0 0 0
300 2 1.0253440650430511e+01 1.5994717880119001e+01 8.3329161280598107e+00 0 0 0
301 1 1.3556966182336270e+01 6.4374733422882384e+00 1.9840465953770510e+00 0 0 0
302 2 1.3043668455355990e+01 6.4021329266369467e+00 2.8488722051741746e+00 0 0 0
303 2 1.4266753660978518e+01 7.1517013270345346e+00 2.0609094434924407e+00 0 0 0
304 1 1.6370070322324253e+01 8.3720897090915525e+00 8.5263758129473679e+00 0 0 0
305 2 1.6040852689572560e+01 8.3288511011968467e+00 9.4537090599033817e+00 0 0 0
306 2 1.7008764738559954e+01 9.1473452136618967e+00 8.6437909354033877e+00 0 0 0
307 1 1.5788394672499740e+01 1.3726159512852897e+01 2.0644449570888361e+00 0 0 0
308 2 1.5040331408321387e+01 1.4122853895375533e+01 1.5752793375905838e+00 0 0 0
309 2 1.6531002892492225e+01 1.4314192529265336e+01 1.8995826698481193e+00 0 0 0
310 1 1.8540681111372230e+01 1.5651823807018493e+01 8.9886296340629066e+00 0 0 0
311 2 1.9103402536324431e+01 1.4833343000399802e+01 8.6501775066004409e+00 0 0 0
312 2 1.7824258141017133e+01 1.5830376177581819e+01 8.3531118940384363e+00 0 0 0
313 1 3.9284064829445615e+00 4.6203140897540216e+00 1.2783119506019749e+00 0 0 0
422 2 4.3784103329951289e+00 7.3898843897174693e+00 5.8537973808511410e+00 1 0 0
315 2 4.5425955666635254e+00 4.2056827092894835e+00 1.9036514057707761e+00 0 0 0
316 1 6.1286365328608179e+00 6.3738579183133091e+00 7.9756873694354624e+00 0 0 0
317 2 6.5218314863514628e+00 6.9734884665854988e+00 7.3130264307781729e+00 0 0 0
318 2 5.4135641056748653e+00 6.9333451685281400e+00 8.3839295251802142e+00 0 0 0
319 1 6.2809734174308263e+00 1.1859698680103900e+01 9.3132666371896999e-01 0 0 0
76 1 3.7800264255846612e+00 2.3858464889501816e+00 7.7100346711974614e+00 0 0 0
321 2 6.9710100361241709e+00 1.1490474285193606e+01 1.5250969098697140e+00 0 0 0
322 1 8.8635498205554324e+00 1.3334798013688880e+01 7.5224681263929982e+00 0 0 0
323 2 8.1535576001294441e+00 1.3845125333670314e+01 7.9660124628416078e+00 0 0 0
324 2 8.3891125851632609e+00 1.2595389461359362e+01 7.1043165167147366e+00 0 0 0
325 1 1.1236338213567764e+01 4.6375333172326894e+00 1.2465071325827484e+00 0 0 0
1130 2 1.2953944782093673e+01 2.2186913504938065e+01 5.5581434058817569e+00 0 0 0
345 2 6.0944489017666932e+00 1.3381825287295186e+01 3.8524689558440159e+00 0 0 0
328 1 1.4041810299646629e+01 6.4802464774415576e+00 7.2245574932539807e+00 0 0 0
329 2 1.3560486201083497e+01 5.6684126105200487e+00 7.0213187677130149e+00 0 0 0
330 2 1.4598488317173320e+01 6.1630749593480267e+00 7.9486512045498943e+00 0 0 0
331 1 1.3854812916580357e+01 1.1620998206891432e+01 7.3691090789316616e-01 0 0 0
332 2 1.3122735758090844e+01 1.2130205676346504e+01 1.1468910641161221e+00 0 0 0
333 2 1.4550593213342834e+01 1.1379696975648171e+01 1.3757960293585392e+00 0 0 0
334 1 1.6446919130920179e+01 1.3449686709229985e+01 7.7377201560230651e+00 0 0 0
335 2 1.6669732483899388e+01 1.3935125733575646e+01 6.9265127283024537e+00 0 0 0
336 2 1.5789294169946814e+01 1.4045550254786168e+01 8.0754537990889652e+00 0 0 0
337 1 4.5251473151227559e+00 6.1549170916430107e+00 4.7491353342624745e+00 0 0 0
338 2 4.7492606465039513e+00 5.3508909106660978e+00 5.2992587727939062e+00 0 0 0
1141 1 2.0013240237784302e+01 2.1511434337100241e+01 5.1791380226028840e+00 0 0 0
340 1 7.0850714947906130e+00 8.2650803177306429e+00 1.0926256908247609e+01 0 0 0
2735 2 1.0338784057110129e+01 2.8039428419832007e+01 1.1837993113296408e-01 1 0 1
342 2 7.8108912120234724e+00 8.4234710626367395e+00 1.0259531112135646e+01 0 0 0
343 1 6.9564630367802911e+00 1.3240280245721436e+01 4.2770894038357898e+00 0 0 0
1028 2 2.2355799174819474e+01 2.5092208657945818e+01 3.4663441264427985e-01 0 0 0
320 2 5.8746074245620790e+00 1.1088229454504626e+01 4.4932216784684964e-01 0 0 0
346 1 9.5114722695229208e+00 1.5156631172783433e+01 1.1228846000538455e+01 0 0 0
347 2 1.0135531768701489e+01 1.5365128756916130e+01 1.0496723264228621e+01 0 0 0
348 2 9.9418127694714844e+00 1.4435445113221693e+01 1.1725294208417385e+01 0 0 0
349 1 1.2182906360609696e+01 6.5184976198905709e+00 4.2207797483228804e+00 0 0 0
350 2 1.2335077320183684e+01 7.2198240694850853e+00 4.8501502796895064e+00 0 0 0
351 2 1.1241426424252559e+01 6.5776046726062933e+00 3.9767104950484096e+00 0 0 0
352 1 1.4815076491946764e+01 8.4298728023460825e+00 1.0784791777200677e+01 0 0 0
353 2 1.5006696339116536e+01 7.5781761837216308e+00 1.1217192711522568e+01 0 0 0
354 2 1.3964208556565447e+01 8.3794651077644282e+00 1.0340339404020263e+01 0 0 0
355 1 1.4375063177463165e+01 1.3396053143072553e+01 4.2209759158068758e+00 0 0 0
356 2 1.4706341436169525e+01 1.2785544412935209e+01 4.9196309119392110e+00 0 0 0
357 2 1.5117190229110118e+01 1.3466947973348061e+01 3.6421333406131939e+00 0 0 0
358 1 1.6950263322408865e+01 1.5153496448633209e+01 1.1142293164102517e+01 0 0 0
359 2 1.6944610903902671e+01 1.5795962129992247e+01 1.1898536625394508e+01 0 0 0
360 2 1.7647853575656590e+01 1.5385924565152859e+01 1.0562025719067336e+01 0 0 0
361 1 7.0359197990130307e+00 7.5656600534248470e+00 5.1866617982645851e+00 0 0 0
362 2 6.5812649344399947e+00 8.2564909198702860e+00 4.7066080108082931e+00 0 0 0
363 2 7.9347392521873541e+00 7.9442699420054312e+00 5.1870819402117920e+00 0 0 0
364 1 1.0211865828734837e+01 9.3997439463999477e+00 1.2167944966040110e+01 0 0 0
365 2 9.6625484621757760e+00 1.0143305839741874e+01 1.1808656525174566e+01 0 0 0
366 2 9.7705717590927712e+00 9.1520368225468385e+00 1.3025598128816366e+01 0 0 0