LAMMPS data file via write_data, version 3 Mar 2020, timestep = 1000000

1008 atoms
2 atom types

2.6352033628198157e-01 1.8136034663711925e+01 xlo xhi
7.1630505293045488e-02 2.2498758494701470e+01 ylo yhi
1.8144869874352487e-01 1.9324267301254629e+01 zlo zhi
6.3041462857373581e-02 -6.6057584751980896e+00 4.2721710251417307e-03 xy xz yz

Masses

1 16
2 2

Atoms # atomic

1 1 6.5254391501266751e+00 1.4804752796721654e+00 4.7978095186772691e+00 0 0 0
108 2 8.8578224605243925e+00 2.7254539311060220e+00 9.6625617580574428e+00 0 0 0
3 2 6.5663285543001431e+00 1.7341659976547541e+00 3.8456893463493818e+00 0 0 0
4 1 3.7393600487541176e+00 1.2018947853926158e+00 5.1330208461229994e+00 0 0 0
5 2 4.7993498454672086e+00 1.2419293629055208e+00 5.1638468893052680e+00 0 0 0
6 2 3.5648077740905819e+00 1.6496496312162952e+00 5.9990830895168497e+00 0 0 0
7 1 -4.8379537768232850e-01 6.4373234519812756e+00 5.2610828869229733e+00 0 0 0
8 2 -6.6993025329407319e-01 6.0442044432013340e+00 6.1366160601385760e+00 0 0 0
9 2 -1.1383876289388111e+00 7.1566071237577189e+00 5.2340907716397549e+00 0 0 0
10 1 2.3293846806144396e+00 6.4796222320549912e+00 4.6753540081511220e+00 0 0 0
11 2 1.4772404133100887e+00 6.8909628056648842e+00 4.7938618582670101e+00 0 0 0
12 2 2.9173626209139898e+00 7.2164936011518472e+00 4.4823059673756891e+00 0 0 0
2 2 7.0941371223469210e+00 7.3684745215524927e-01 4.9770693930616972e+00 0 0 0
14 2 5.5910365566997671e+00 5.2537076993796745e+00 8.8191457229954473e+00 0 0 0
35 2 -4.3540213740607459e-01 6.6557434192889564e-01 7.3892426091084964e+00 0 0 0
156 2 1.1832410038500139e+01 8.4763645849818448e-01 1.9644719945491569e+00 0 0 0
18 2 5.6408529443545685e+00 5.0161537155439699e+00 1.0305491120528296e+00 0 0 0
219 2 6.1101018377088963e+00 1.0488338273427397e+01 7.0485270253424144e+00 0 0 0
221 2 4.7313854125312105e+00 1.0654101746655506e+01 2.7527221160533921e+00 0 0 0
21 2 1.0816685601263729e+00 2.1614813713453493e+00 1.1558309657732815e+00 0 0 0
324 2 1.2480152325105388e+01 7.5252916037941731e+00 9.2961252097565727e-01 0 0 0
272 2 1.0023338079150964e+01 9.6617698451170799e+00 1.3322884639768497e+00 0 0 0
167 2 1.1118486201402293e+01 5.9456170867468341e+00 9.9730812566944460e-01 0 0 0
25 1 4.7487528233384833e+00 6.1550157373018841e+00 7.3488280112875257e+00 0 0 0
26 2 5.1781531616158656e+00 7.0215807444408220e+00 7.4730137218108990e+00 0 0 0
27 2 3.8814454743440732e+00 6.2774925297795541e+00 7.8372044062952479e+00 0 0 0
28 1 5.8445189630997509e+00 6.1291025134825512e+00 2.5589278005589473e+00 0 0 0
29 2 5.3589989858065277e+00 5.9554453726612930e+00 3.3937235886613668e+00 0 0 0
30 2 5.3131538440134625e+00 6.8731459565540955e+00 2.2332036432367914e+00 0 0 0
31 1 1.3321913062787258e+00 1.0508477918845816e+00 2.6810366391843394e+00 0 0 0
32 2 2.3051530381265812e+00 7.9387478195246119e-01 2.5502674523763686e+00 0 0 0
33 2 1.5587762557602793e+00 1.6983863940713710e+00 3.3629945009540898e+00 0 0 0
34 1 4.6971673123531188e-01 1.0649769515275649e+00 7.2466877372050611e+00 0 0 0
106 1 9.8484715989500877e+00 2.7497876128570056e+00 9.3839244841453944e+00 0 0 0
36 2 4.5446484570352785e-01 1.7970147044000870e+00 7.8838041336893685e+00 0 0 0
37 1 6.6777239437624951e+00 2.7251614327709044e+00 2.4458540762930889e+00 0 0 0
38 2 5.7620345829758408e+00 3.0926638508698274e+00 2.6381238773923172e+00 0 0 0
39 2 7.2733304627791719e+00 3.3797170670378400e+00 2.8168775578852743e+00 0 0 0
40 1 3.8381295665372908e+00 2.7326734003307136e+00 7.4727429688078937e+00 0 0 0
41 2 4.6465247885724628e+00 3.1499896551093673e+00 7.2026909421696717e+00 0 0 0
42 2 3.0719773159653498e+00 3.3263568524792042e+00 7.2971759267681513e+00 0 0 0
43 1 -4.6527984856514926e-01 4.7174840420556485e+00 7.7253271443062372e+00 0 0 0
44 2 -1.1550838176481624e+00 4.0476647539908601e+00 7.5169254801229863e+00 0 0 0
45 2 -7.7118430001088978e-01 5.2742347189027363e+00 8.4968517429705592e+00 0 0 0
46 1 1.9135787531959791e+00 4.9222441340227743e+00 2.4768193365262308e+00 0 0 0
47 2 1.0192361746256489e+00 4.6079792571683278e+00 2.7136578554248971e+00 0 0 0
48 2 2.0433064094036055e+00 5.5864086160008979e+00 3.2547152597274720e+00 0 0 0
49 1 6.3944041888212517e+00 3.4950159678552972e+00 6.7636865496109762e+00 0 0 0
50 2 5.9821491121392381e+00 4.0424898728336869e+00 6.0366347059302177e+00 0 0 0
51 2 6.4539935131201487e+00 2.6605645848358885e+00 6.3377469934467472e+00 0 0 0
52 1 4.0211953486842953e+00 3.5786151995968094e+00 3.5024099470656012e+00 0 0 0
53 2 3.2493425384369790e+00 4.0478369717545668e+00 3.1024030878180486e+00 0 0 0
54 2 3.6547094665018065e+00 2.9169428756122047e+00 4.0800525502083875e+00 0 0 0
55 1 -4.2093001653904372e-01 4.5012610568775484e+00 3.5687656614325221e+00 0 0 0
56 2 -5.9485157785163034e-01 5.2874152171109747e+00 4.1529507507240364e+00 0 0 0
57 2 -2.8392213965270585e-02 3.8450798250925962e+00 4.1422861137786882e+00 0 0 0
58 1 1.8787986076508876e+00 4.4195890082847553e+00 6.6744259324715971e+00 0 0 0
59 2 2.1783024591175306e+00 5.2111019839576525e+00 6.1965433428661907e+00 0 0 0
60 2 1.0242990780951793e+00 4.6484572668462736e+00 7.1556994832459671e+00 0 0 0
61 1 8.1963313217825942e+00 6.7773950087423254e+00 1.6669486476059536e+00 0 0 0
62 2 7.4592691730438103e+00 6.4655081336412739e+00 2.2074459928221390e+00 0 0 0
63 2 8.2124866234004408e+00 6.1192390265609777e+00 9.3268709592005461e-01 0 0 0
64 1 2.4049243988988063e+00 6.8512426279466467e+00 8.3679427726917037e+00 0 0 0
65 2 1.5669413541581956e+00 7.2260395173400376e+00 7.9508634757685002e+00 0 0 0
66 2 2.6337901750756818e+00 7.5646736292068324e+00 8.9907017206557018e+00 0 0 0
293 2 1.2485218089487812e+01 1.1004838882532390e+01 7.4103357049641492e+00 0 0 0
68 2 -2.3758676271238826e+00 1.2645737246476574e+00 8.6521004891738187e+00 0 0 0
80 2 6.6150747151585128e+00 1.7767541282608612e+00 8.9232406958823929e-01 0 0 0
72 2 3.8180453371291558e+00 1.5475290759961038e+00 1.2848218985370952e+00 0 0 0
73 1 5.5674586055081932e+00 5.1719688811436821e+00 4.9418264643989485e+00 0 0 0
74 2 5.1772114091493018e+00 5.7868404695547744e+00 5.6029034095819732e+00 0 0 0
75 2 4.9667450214868918e+00 4.5516357598271142e+00 4.4588719470168270e+00 0 0 0
76 1 9.7310706623682242e-01 2.6672234417376917e+00 4.9378464084728746e+00 0 0 0
77 2 5.5933512590824197e-01 1.9725051567747098e+00 5.5578885366449242e+00 0 0 0
78 2 1.3976911628164419e+00 3.2970375482747141e+00 5.5368217137418103e+00 0 0 0
190 1 6.1041484334301721e-01 1.0200330149633109e+01 9.6646691057415008e+00 0 0 0
218 2 7.5087041082733545e+00 1.1132682767522251e+01 6.9458571499452928e+00 0 0 0
246 2 1.6090103422940234e+00 1.0576056088133955e+01 5.7259997739847739e+00 0 0 0
85 1 1.5586209289784765e+01 1.0345891467363146e+00 4.5367156211805169e+00 0 0 0
87 2 1.5852555277485086e+01 1.6031008401563174e+00 3.7441021284502964e+00 0 0 0
88 1 1.3026010475581760e+01 1.1081979526989305e+00 5.0854157244184899e+00 0 0 0
89 2 1.2859119741050701e+01 1.8428155883587896e+00 4.4611847878548536e+00 0 0 0
90 2 1.3961396100904272e+01 8.8235500813855394e-01 4.8743357523396273e+00 0 0 0
91 1 8.5788804125946818e+00 6.5588022160213475e+00 5.1358829216578172e+00 0 0 0
92 2 8.2289961911097080e+00 5.7405151449073974e+00 4.6575392674273068e+00 0 0 0
93 2 9.5187620890968940e+00 6.6719561510517309e+00 4.9102249080975939e+00 0 0 0
94 1 1.1304364492427815e+01 6.5140209833762484e+00 4.7008168347633763e+00 0 0 0
95 2 1.1908665732132594e+01 7.2856858316880082e+00 4.8639440087473416e+00 0 0 0
96 2 1.1384228157840141e+01 5.8689614096135347e+00 5.4269819445819802e+00 0 0 0
145 1 1.7441249308671861e+01 7.2163466120522139e+00 1.6263134807864645e+00 0 0 0
22 1 9.0158885666399202e-01 2.7054395904562623e+00 9.4938889358529366e+00 0 0 0
753 2 3.8781469953524241e+00 9.4331906894064108e+00 9.1609321827307042e+00 0 0 0
101 2 1.4386378972592901e+01 5.4445166288564790e+00 1.2782733104012762e+00 0 0 0
133 1 1.5341493409120492e+01 3.3460222456615867e+00 6.5197733999761915e+00 0 0 0
668 2 1.2777687645393685e+01 1.8937771256818383e+00 8.8445028259435734e+00 0 0 0
86 2 1.6203733345245155e+01 2.8464459333007219e-01 4.6924643235718309e+00 0 0 0
309 2 7.6030206082032201e+00 1.1283137893169048e+01 3.0662496811328688e+00 0 0 0
109 1 1.3767178538729256e+01 6.4313753468855994e+00 6.8340609878758594e+00 0 0 0
110 2 1.4170380079235345e+01 5.7848856718464008e+00 7.4382691208152520e+00 0 0 0
111 2 1.2921100455563064e+01 6.7556834930974095e+00 7.2728227661002078e+00 0 0 0
112 1 1.4771494713229067e+01 6.7177175596357657e+00 2.4770304390975131e+00 0 0 0
113 2 1.4202601041576346e+01 7.4941391872492300e+00 2.3054555696598245e+00 0 0 0
114 2 1.5653929781022478e+01 7.0215050333225388e+00 2.3139838911278594e+00 0 0 0
115 1 1.0347206340429024e+01 1.6982174825536607e+00 2.5253959461395059e+00 0 0 0
116 2 1.0216051379575585e+01 2.3659386954715171e+00 1.8769746633186717e+00 0 0 0
304 1 1.2978497965100328e+01 1.0934932661540136e+01 3.6689592116928860e+00 0 0 0
118 1 9.6230541000347714e+00 1.0943089655356582e+00 7.2240497913717316e+00 0 0 0
119 2 9.7851855694032590e+00 1.8099918573884033e+00 7.8277481506756912e+00 0 0 0
120 2 9.5577725474056923e+00 1.5651695663509397e+00 6.3622955901677072e+00 0 0 0
121 1 1.5551802918741458e+01 2.8266931900472239e+00 2.4821306849445706e+00 0 0 0
122 2 1.6289487076936037e+01 3.5348631202600527e+00 2.6672590691657763e+00 0 0 0
123 2 1.5786470640574572e+01 2.3905494704797983e+00 1.6599560161186058e+00 0 0 0
124 1 1.2928561497908770e+01 2.6075060102839829e+00 7.3549521036440044e+00 0 0 0
125 2 1.3884568817852502e+01 2.8520463187334388e+00 7.2534424029863560e+00 0 0 0
126 2 1.2853233689054560e+01 1.9233149026141405e+00 6.6137402661215487e+00 0 0 0
127 1 8.6025672730941736e+00 5.1445989013120395e+00 7.4762123819510844e+00 0 0 0
128 2 8.0689128619963988e+00 4.4073795433133229e+00 7.1127961678677982e+00 0 0 0
129 2 8.6048558578726215e+00 5.8541500748450916e+00 6.7572003886487906e+00 0 0 0
130 1 1.0930182867788229e+01 4.9602518045363517e+00 2.5302929850334297e+00 0 0 0
131 2 1.1669238617828718e+01 4.2752286274568307e+00 2.7840297037721213e+00 0 0 0
132 2 1.1036301466576656e+01 5.7103152988447485e+00 3.1994598691686100e+00 0 0 0
134 2 1.5152554250324698e+01 4.0926736173972795e+00 5.8651377052561218e+00 0 0 0
136 1 1.2989877394538080e+01 3.2599159166082230e+00 3.3692634207337457e+00 0 0 0
137 2 1.3319672628445810e+01 4.0294150838995364e+00 3.9046430574302464e+00 0 0 0
138 2 1.3824181108901024e+01 3.0106483345725810e+00 2.9287226597276304e+00 0 0 0
139 1 8.5186350087180944e+00 4.2454610559263628e+00 3.5520151854524276e+00 0 0 0
140 2 9.3058969977336847e+00 4.4193347575898159e+00 3.0270635709319746e+00 0 0 0
141 2 8.8911164180309203e+00 3.5765080779064466e+00 4.1992346093072861e+00 0 0 0
142 1 1.1252118548880466e+01 4.3356343895525926e+00 6.3594453756170504e+00 0 0 0
143 2 1.1856927614184398e+01 3.7755585861051548e+00 6.8858080423535020e+00 0 0 0
144 2 1.0440538221131826e+01 4.5867108263745067e+00 6.8236872552979193e+00 0 0 0
147 2 1.6987614602817761e+01 7.8014541735680751e+00 9.4914344592489508e-01 0 0 0
148 1 1.1431496476131604e+01 7.0840756012856030e+00 8.1417295704073869e+00 0 0 0
149 2 1.1194585529048924e+01 6.2839745413231265e+00 8.6544911934060895e+00 0 0 0
150 2 1.1750746482416623e+01 7.7303355280221977e+00 8.8159234604554495e+00 0 0 0
23 2 1.6080236243699355e+00 3.3258026216775383e+00 9.7213759809027049e+00 0 0 0
584 2 3.2179971407207679e+00 5.4225549733332878e-01 9.3966635959848901e+00 0 0 0
153 2 6.5748402360613696e+00 1.4514387164041609e+00 8.6554811786401604e+00 0 0 0
220 1 4.0248796414913928e+00 1.0956419731619802e+01 3.3395461523884924e+00 0 0 0
155 2 1.2997773706670630e+01 1.2377033838935680e+00 9.7133515744028931e-01 0 0 0
311 2 1.0794956490289730e+01 1.1165179238246315e+01 5.6819818299561877e+00 0 0 0
157 1 1.4255128492970055e+01 5.2678864207987965e+00 4.5875514608911114e+00 0 0 0
158 2 1.4369840004286317e+01 5.8729572055537371e+00 3.8349599113444457e+00 0 0 0
159 2 1.3817073599397208e+01 5.7007245120704386e+00 5.2906981289898107e+00 0 0 0
160 1 9.8036362094875145e+00 2.3717907170749992e+00 4.8434652527220781e+00 0 0 0
161 2 1.0533977217717403e+01 2.9825847052495558e+00 5.0033530161417099e+00 0 0 0
162 2 1.0052269919508392e+01 2.0973514857026592e+00 3.8234593270537887e+00 0 0 0
67 1 -2.1603961648763210e+00 3.9698315061188683e-01 8.1911697429817121e+00 0 0 0
151 1 6.7106268470098129e+00 6.9668037494888568e-01 8.0968625714126503e+00 0 0 0
19 1 1.0710832089418783e+00 2.6908013218434785e+00 3.2081789226245716e-01 0 0 0
169 1 6.7314161103550765e+00 8.6675365288883626e+00 4.8298680952545388e+00 0 0 0
170 2 7.4695608196998018e+00 8.0912597159862170e+00 4.9918836407685312e+00 0 0 0
171 2 6.8128357179290182e+00 9.3615114570727709e+00 5.5930940797587976e+00 0 0 0
172 1 3.8761369771270120e+00 8.5808579626594117e+00 4.6676656067273425e+00 0 0 0
173 2 3.7028083289618574e+00 9.4245991160403086e+00 4.1104026862028054e+00 0 0 0
174 2 4.8576967191596250e+00 8.4968480517882181e+00 4.7784320716679280e+00 0 0 0
189 2 2.0284485218243056e+00 1.0338751207740287e+01 4.5468300801465250e-01 0 0 0
13 1 5.3936007648018460e+00 4.7994585572347823e+00 9.6551195927195810e+00 0 0 0
209 2 3.7449358012327068e+00 1.0649516841726083e+01 7.2934999536438614e+00 0 0 0
192 2 6.8471968977410125e-01 9.5631056466987427e+00 8.9461119826588842e+00 0 0 0
199 1 1.6093602447368458e+00 8.7746814076505650e+00 2.8124770572073947e+00 0 0 0
200 2 1.4314219650855180e+00 9.4444799553049084e+00 2.0898314652153713e+00 0 0 0
201 2 1.1103768929862470e+00 8.0250699443355664e+00 2.4374477952912956e+00 0 0 0
202 1 1.4275507627312178e-01 8.3706977615386045e+00 7.4993616786185147e+00 0 0 0
203 2 -8.2112207959831052e-01 8.3132496427350357e+00 7.7547071573121418e+00 0 0 0
204 2 2.7450041563016336e-01 8.8578132862404431e+00 6.6619351758685958e+00 0 0 0
205 1 6.3932769769915021e+00 1.0113747086111033e+01 2.4311584642284205e+00 0 0 0
206 2 6.7008049757976185e+00 9.3074478733508261e+00 2.9504489403841920e+00 0 0 0
207 2 6.6038855652380635e+00 9.8484970362773261e+00 1.4913162211913624e+00 0 0 0
208 1 4.3192453174026184e+00 9.8569606291056733e+00 7.5798515530640458e+00 0 0 0
274 1 9.9436578974441687e+00 1.0356065967519628e+01 9.5071951797308163e+00 0 0 0
210 2 3.9986037475419614e+00 9.0960788017671685e+00 7.0771564701605421e+00 0 0 0
273 2 1.0899886064999274e+01 1.0420965220283541e+01 3.7813977934053045e-01 0 0 1
83 2 2.1483855593175378e+00 5.6025292802605424e+00 8.0036107906604237e-01 0 0 0
84 2 3.0382810246350278e+00 6.7635815834370412e+00 4.7394062708190327e-01 0 0 0
187 1 1.1053573767573353e+00 1.0179789594932016e+01 6.2751731280194656e-01 0 0 0
99 2 1.3093525504384536e+01 4.7537405367833738e+00 9.4648695591798653e+00 0 0 0
235 1 -2.3278926875005368e+00 8.0536405783528231e+00 8.3171264605014414e+00 0 0 0
236 2 -2.6629128523831125e+00 8.8370826819848123e+00 8.8472832551210345e+00 0 0 0
238 1 4.0616272325716682e+00 8.2426849571251228e+00 1.5337967229819389e+00 0 0 0
239 2 3.3393687005234973e+00 8.5150772359402502e+00 2.1294415715144366e+00 0 0 0
240 2 4.1936465373969929e+00 8.9623261751764325e+00 8.6911396048790990e-01 0 0 0
244 1 9.1886440144208392e-01 9.9557298751225574e+00 5.3657502660595657e+00 0 0 0
245 2 1.3557540187744304e+00 9.4916682408258914e+00 4.6256960041102326e+00 0 0 0
70 1 3.7389859241741132e+00 7.3941202979047616e-01 1.8784930054885687e+00 0 0 0
780 2 1.2748606069488286e+01 9.8571043666609039e+00 6.1147115627109172e-01 0 0 0
217 1 6.8050064648075805e+00 1.0699048630058456e+01 6.4463105824718143e+00 0 0 0
253 1 1.5689207744237933e+01 8.5075929393808458e+00 5.2004010997564842e+00 0 0 0
255 2 1.5878281262808851e+01 8.7902666907279823e+00 4.2553327306387114e+00 0 0 0
256 1 1.2819107464947590e+01 8.8024616371329909e+00 5.2732706121070922e+00 0 0 0
257 2 1.3708628954610797e+01 8.3802098192956560e+00 5.0544252680965585e+00 0 0 0
258 2 1.2727124497960510e+01 9.5847431513491461e+00 4.6650409190040323e+00 0 0 0
835 1 1.2690525761576790e+01 8.6731723810076566e+00 9.7027347188233062e+00 0 0 0
117 2 9.5896440036493225e+00 1.0216802662497297e+00 2.3414682735670076e+00 0 0 0
248 2 7.5455784429553043e+00 8.2509502384947453e+00 4.6521767394010899e-01 0 0 0
276 2 9.9006812882691833e+00 9.9947894140690430e+00 8.5981961252121888e+00 0 0 0
283 1 1.0176436702600231e+01 8.4664014281598519e+00 2.5236306542646663e+00 0 0 0
284 2 9.9073634665912600e+00 8.9150396996169778e+00 3.4711383728400329e+00 0 0 0
285 2 9.5267224424873600e+00 7.7700215958914107e+00 2.2526951592144822e+00 0 0 0
286 1 9.5829743631810107e+00 8.8114296598969286e+00 7.2843990514210981e+00 0 0 0
287 2 1.0267539724064234e+01 8.1382680357943826e+00 7.5431318136625798e+00 0 0 0
288 2 8.6795596922357348e+00 8.5910072268365099e+00 7.5951542055892656e+00 0 0 0
289 1 1.5434284617232318e+01 9.9871946345160740e+00 2.6676912507428931e+00 0 0 0
836 2 1.2882813306395679e+01 9.2675810311330178e+00 8.9518855685847587e+00 0 0 0
291 2 1.5694384370487573e+01 9.7312969255715132e+00 1.7450428107110658e+00 0 0 0
292 1 1.3059180682511162e+01 1.0274121972958785e+01 7.5894933927313426e+00 0 0 0
667 1 1.2605505147270108e+01 1.2418822926493500e+00 9.5799173736473691e+00 0 0 0
294 2 1.2928991096768344e+01 9.7820402977840448e+00 6.7410868324358519e+00 0 0 0
290 2 1.6112048936200424e+01 1.0647502401639109e+01 2.9636016612320644e+00 0 0 0
399 2 7.8956879174221353e+00 4.0001009498084311e-01 9.7827331210828050e-01 0 0 0
306 2 1.3690530643829890e+01 1.0552679913542370e+01 3.0954577443225002e+00 0 0 0
135 2 1.5578889701746848e+01 2.5728169137316899e+00 5.9601837316125152e+00 0 0 0
319 1 6.7678668156478512e+00 7.8550613939453493e+00 8.2134114453405171e+00 0 0 0
320 2 6.7727842570146866e+00 8.5570562286697527e+00 8.9321434522828849e+00 0 0 0
321 2 7.1691773996815353e+00 7.1008969370595389e+00 8.6051812612991867e+00 0 0 0
322 1 1.2682875583428009e+01 8.2846634382389013e+00 1.5220691276126626e+00 0 0 0
323 2 1.1881592966953058e+01 8.4486735870439897e+00 2.1230524814455389e+00 0 0 0
152 2 7.6122429204356150e+00 8.0086378880357112e-01 7.6639917151335162e+00 0 0 0
328 1 9.7197888028944295e+00 9.7350563081959987e+00 4.8145941742523419e+00 0 0 0
329 2 9.4974010534625926e+00 9.3627983136238271e+00 5.7154597575525319e+00 0 0 0
330 2 9.1062883842593898e+00 1.0442264971042627e+01 4.5208937014408743e+00 0 0 0
671 2 8.6699952446349755e+00 5.8479848695570142e+00 9.2375159869443273e+00 0 0 0
102 2 1.3879566181927245e+01 4.0738078585725317e+00 5.6100406716644891e-01 0 0 0
146 2 1.7538350681779963e+01 6.3383006880241899e+00 1.1909726899977278e+00 0 0 0
301 1 -1.9412976666705477e+00 1.0820496220298139e+01 6.7084642005156123e+00 1 0 0
100 1 1.4458304510268832e+01 4.8724866391302761e+00 4.3092094862596431e-01 0 0 0
20 2 3.4141651198495104e-01 3.3353568623049825e+00 3.7166386383508854e-01 0 0 0
254 2 1.5838655627971743e+01 9.3012866000973844e+00 5.7411786217322760e+00 0 0 0
165 2 1.6824965416395077e+01 7.0262586757421852e-01 8.5047223457911370e-01 0 0 0
587 2 -1.7336607149541849e+00 6.8363522104987116e+00 9.5096975564120232e+00 0 0 0
237 2 1.4896188094192834e+01 7.6679697933323565e+00 7.6876831673816053e+00 0 0 0
585 2 3.8086016444308464e+00 1.8171335146004493e+00 8.9302983383869190e+00 0 0 0
302 2 1.5193454061260528e+01 1.0627760575195977e+01 7.3446827136203305e+00 0 0 0
606 2 1.0833865989418808e+01 4.0498146740874548e+00 9.5764752706531304e+00 0 0 0
154 1 1.2564327838734069e+01 4.9355178444896886e-01 1.4534984155958992e+00 0 0 0
224 2 -1.9889402064058670e-01 1.0950300713425186e+01 4.3971678336093856e+00 0 0 0
521 2 2.1612292773877795e+00 5.4325160604504106e+00 9.3846832564296090e+00 0 0 0
163 1 1.6309654170147486e+01 1.3142903019970775e+00 2.7104063478309887e-01 0 0 0
97 1 1.4085296611809188e+01 4.7519034189165774e+00 9.4166291041661960e+00 0 0 0
271 1 9.9548628887098349e+00 1.0209474068316267e+01 4.8662940639425462e-01 0 0 0
524 2 -2.7931938044490670e+00 3.2748741916112061e+00 9.7038999323854807e+00 0 0 0
805 1 1.2472232287119285e+01 1.1015754822435765e+01 1.6060924272577687e+01 0 0 0
658 1 9.8154161420275674e+00 5.3973840049437438e-01 1.0927935072859368e+01 0 0 0
809 2 1.0235110229331298e+01 1.0683886073936572e+01 1.2425092207584370e+01 0 0 0
724 1 4.8697156462894498e-01 1.0695358520659976e+01 1.2853761043409415e+01 0 0 0
990 2 7.2105244256142296e+00 1.9261275669695971e-01 1.7324554965076651e+01 0 1 0
777 2 6.3627428260786152e+00 1.0845687347961876e+01 1.0054844753271434e+01 0 0 0
510 2 1.4429766590357929e+00 7.9985768893080278e-01 1.4823913928967706e+01 0 0 0
794 2 1.2631929084800831e+01 1.0841447104625493e+01 1.2288325455723969e+01 0 0 0
815 2 8.6100376555175977e+00 1.1208955156782057e+01 1.6502198368073657e+01 0 0 0
593 2 9.0901259854535787e+00 3.8458794859890760e-01 1.4618773112442456e+01 0 0 0
79 1 2.4107532944675381e-01 1.4989751038899322e+00 1.9123412142997985e+01 0 0 0
776 2 7.8833203398192282e+00 1.0505352638571239e+01 9.7542251590808409e+00 0 0 0
694 1 -2.9362843578592717e+00 1.0286323798811210e+01 1.8787831294958956e+01 0 0 0
333 2 8.6697301692004523e+00 8.4190004472775346e+00 1.8425086937879549e+01 0 0 0
623 2 4.9673292376643978e+00 1.0838621276600868e+00 1.6988567787977537e+01 0 0 0
509 2 -9.0730459610570691e-03 1.4837485290702079e-01 1.4573559946237287e+01 0 0 0
164 2 9.0240301920982162e+00 8.0437824423708582e-01 1.8914552450477068e+01 0 0 0
168 2 4.2147430913313269e+00 6.8381985149460522e+00 1.8884997598872573e+01 0 0 0
505 1 3.1386948124666505e+00 1.2095630846899961e+00 1.4507273811730393e+01 0 0 0
506 2 3.2547254458435040e+00 1.8868117940662770e+00 1.5188899326233072e+01 0 0 0
725 2 -2.4174777740701670e-01 1.1058495058751705e+01 1.2356363172134555e+01 0 0 0
508 1 4.7551939005688304e-01 9.8297966001107329e-01 1.4542613925819968e+01 0 0 0
620 2 6.6922340603289481e+00 8.2384391543125224e-01 1.1918864771273979e+01 0 0 0
610 1 6.2807124976145392e+00 2.6956615912239013e+00 1.9244967492972961e+01 0 0 0
511 1 -3.6707086556151656e+00 6.7228385374210360e+00 1.4538834720573398e+01 0 0 0
512 2 -3.7860838578842362e+00 5.7958069475069696e+00 1.4192425027862862e+01 0 0 0
513 2 -3.7249096345981298e+00 6.4243482646655989e+00 1.5480188238453159e+01 0 0 0
514 1 -9.6677442525111790e-01 6.5483532331568597e+00 1.4364952417526997e+01 0 0 0
515 2 -7.9795090974973881e-01 5.7959382487380626e+00 1.5002779524516081e+01 0 0 0
516 2 -1.9235188890268313e+00 6.6568069475979090e+00 1.4523188395498897e+01 0 0 0
332 2 9.5733483998638977e+00 9.6443210440573655e+00 1.8401709269688354e+01 0 0 0
519 2 1.6285387027367912e+00 5.4373161672660038e+00 1.7908620977378767e+01 0 0 0
778 1 6.1648748308261148e+00 1.0532060655068639e+01 1.9013139675872942e+01 0 0 0
522 2 2.5181763611438850e+00 5.3490608127975650e+00 1.0891090478025520e+01 0 0 0
828 2 9.1869318450580728e+00 8.2201784419779820e+00 1.1862131095766101e+01 0 0 0
827 2 1.0651691595278184e+01 7.7972120009763302e+00 1.1715834570389500e+01 0 0 0
525 2 -2.1108703829327835e+00 2.1815808088650197e+00 1.0716644726518878e+01 0 0 0
807 2 1.2597624066501581e+01 1.0170188636449849e+01 1.5486077973175947e+01 0 0 0
527 2 -2.6161955653591402e+00 2.0461018859137861e+00 1.8274555949571777e+01 0 0 0
529 1 1.4347154888640983e+00 6.6835113621617914e+00 1.6588748265921815e+01 0 0 0
530 2 1.3056501615135190e+00 6.2636780186239589e+00 1.5681036559902545e+01 0 0 0
531 2 5.2044389396402213e-01 6.9825606415550867e+00 1.6895651038098080e+01 0 0 0
532 1 2.7804532429734872e+00 6.4798622034244895e+00 1.2134136473404540e+01 0 0 0
533 2 3.6800506280942837e+00 6.7217173404633934e+00 1.2344173657094283e+01 0 0 0
534 2 2.4102676590983787e+00 6.1121145975153821e+00 1.2963850055609937e+01 0 0 0
535 1 -1.8919570610951415e+00 1.2132782058968021e+00 1.2068786094432051e+01 0 0 0
518 2 8.8704037038361960e-01 4.6739356330494735e+00 1.8922899668315090e+01 0 0 -1
537 2 -9.6696290912577920e-01 1.0422534118661990e+00 1.1853413833044939e+01 0 0 0
538 1 -2.9267494615932037e+00 1.0356439155178765e+00 1.6941014622725234e+01 0 0 0
539 2 -3.7906593485995357e+00 7.5224701329069865e-01 1.6766899600574320e+01 0 0 0
540 2 -2.6372598625463590e+00 1.5105087770755561e+00 1.6102139834748559e+01 0 0 0
541 1 3.1777998528008924e+00 2.5753575179279742e+00 1.2165816576695997e+01 0 0 0
542 2 3.2574576787288665e+00 1.8638265253143331e+00 1.2894108523952740e+01 0 0 0
543 2 3.5295050519404532e+00 2.2099316844695966e+00 1.1338635985859069e+01 0 0 0
544 1 6.6402602973577096e-01 2.6817673304928387e+00 1.6761529182247386e+01 0 0 0
545 2 4.1683228780528836e-01 2.4102448770029290e+00 1.7675942717934610e+01 0 0 0
546 2 4.2299386384006965e-01 1.9946120692292142e+00 1.6180034571848250e+01 0 0 0
547 1 -3.4391675599780185e+00 5.1428509108584892e+00 1.6783114014323829e+01 0 0 0
548 2 -4.0994128930144074e+00 4.4441822118614480e+00 1.6629545509325716e+01 0 0 0
549 2 -3.3365512374990498e+00 5.3199941853931296e+00 1.7731075980255611e+01 0 0 0
550 1 -1.1572049949125893e+00 4.8894776460892251e+00 1.2034601473162795e+01 0 0 0
551 2 -4.9215554993531496e-01 4.2314176112233222e+00 1.2211982355813543e+01 0 0 0
552 2 -9.9224164080458355e-01 5.5299035009743749e+00 1.2801170037613197e+01 0 0 0
553 1 3.0865585325854363e+00 3.5013849666838830e+00 1.5863543769923018e+01 0 0 0
554 2 2.2599364559253354e+00 3.2546330547885942e+00 1.6332238211481503e+01 0 0 0
555 2 3.8069546499730302e+00 3.9155154104988412e+00 1.6400541141921749e+01 0 0 0
556 1 8.0980347119095519e-01 3.2553603826642314e+00 1.2985688921335239e+01 0 0 0
557 2 1.5608424627462680e+00 3.1320273001112504e+00 1.2424364505201604e+01 0 0 0
558 2 7.0408911744125113e-01 2.5488352251821755e+00 1.3633682771446880e+01 0 0 0
559 1 -3.5904888302809015e+00 4.2444881007916084e+00 1.3159116054979451e+01 0 0 0
560 2 -2.8111377753428632e+00 4.4479647626368006e+00 1.2628439950480285e+01 0 0 0
561 2 -3.3702447672380069e+00 3.5877109227984016e+00 1.3837588397914564e+01 0 0 0
562 1 -1.1134865744664673e+00 4.3332014151631322e+00 1.5717198771400884e+01 0 0 0
563 2 -4.9028055930054393e-01 3.9007716540258657e+00 1.6339326831902198e+01 0 0 0
564 2 -1.9785208715075031e+00 4.6175092970673211e+00 1.6213632968943266e+01 0 0 0
565 1 5.3386691810354172e+00 7.1126937055845190e+00 1.1298136853529950e+01 0 0 0
566 2 4.9082611994391154e+00 7.6457825560562664e+00 1.0583479622402701e+01 0 0 0
567 2 5.5496429414432642e+00 6.3283215935892398e+00 1.0732501583778873e+01 0 0 0
568 1 -1.0431831773475642e+00 7.3313788791439256e+00 1.7541273079115967e+01 0 0 0
569 2 -1.1573087388666190e+00 6.4920501880307544e+00 1.8064322376892250e+01 0 0 0
570 2 -6.1876919924693929e-01 7.9011343559741816e+00 1.8182525402548514e+01 0 0 0
249 2 6.6999641300555268e-01 9.4711073784442323e+00 1.8605339001797311e+01 0 0 0
572 2 -5.7610447611235323e+00 1.2544131889906354e+00 1.8401741795557228e+01 0 0 0
692 2 -2.5868302460543307e+00 1.0951657877092472e+01 1.0012228408935297e+01 0 0 0
528 2 -3.6975295821804512e+00 2.9399924349619635e+00 1.9024219752029310e+01 0 0 -1
576 2 1.2028359744360313e+00 1.2879377289951810e+00 1.0906406832091175e+01 0 0 0
577 1 1.9291577421437092e+00 5.3952157451243892e+00 1.4416893050941480e+01 0 0 0
578 2 1.2559350386312627e+00 4.8502757104254179e+00 1.4025130449840983e+01 0 0 0
579 2 2.4522274706764380e+00 4.7165846116159544e+00 1.4897735136341616e+01 0 0 0
580 1 -2.2320458230731846e+00 2.1993628580381896e+00 1.4741129209347019e+01 0 0 0
581 2 -2.0951654588994977e+00 1.6864061504663868e+00 1.3887470044262949e+01 0 0 0
582 2 -1.5305808471813562e+00 2.8747693356308117e+00 1.4855801880703002e+01 0 0 0
721 1 3.4351235204381867e+00 1.0787965763023371e+01 1.6112325277209926e+01 0 0 0
107 2 1.0108539427991202e+01 1.9404282352347471e+00 9.8962181808424727e+00 0 0 0
589 1 1.2431137954508428e+01 1.1546891764674323e+00 1.4313444660369836e+01 0 0 0
590 2 1.1498029163472477e+01 8.5538211783647189e-01 1.4291553662350671e+01 0 0 0
591 2 1.2548433519151553e+01 1.8331437583617349e+00 1.5032495269648575e+01 0 0 0
592 1 9.7682596461255571e+00 1.0352155603465558e+00 1.4869971735820503e+01 0 0 0
816 2 7.4558593355616898e+00 1.0984185493354268e+01 1.5486398560538673e+01 0 0 0
594 2 9.5113237401887396e+00 1.8121360469073966e+00 1.4260288364110904e+01 0 0 0
595 1 5.0149966816221232e+00 6.5406879320826938e+00 1.4698239430081395e+01 0 0 0
596 2 5.0131886607640856e+00 6.1924105663056634e+00 1.5611458106529700e+01 0 0 0
597 2 4.9028281686995268e+00 5.7250283539149116e+00 1.4144848518090015e+01 0 0 0
598 1 7.8339744370575364e+00 6.4913793420083641e+00 1.4451437658254733e+01 0 0 0
599 2 6.9016535579946741e+00 6.8701471519618158e+00 1.4460545451374283e+01 0 0 0
600 2 7.8429384659289196e+00 5.9850315387010680e+00 1.3566765963472562e+01 0 0 0
826 1 9.8755281590343387e+00 8.1551524883352648e+00 1.1205568354087466e+01 0 0 0
603 2 1.0897607677314333e+01 5.1624114105452872e+00 1.8344500313422238e+01 0 0 0
536 2 -2.4081681468423568e+00 4.9761322743785835e-01 1.1712519386214634e+01 0 0 0
605 2 1.1246723069603799e+01 5.0855015915887156e+00 1.0722699218611719e+01 0 0 0
588 2 -1.1162724377167521e+00 5.6846404287069214e+00 1.0565687753354647e+01 0 0 0
837 2 1.2359211103032109e+01 9.2412845017324532e+00 1.0469779355808184e+01 0 0 0
833 2 6.9254271199090942e+00 9.4954186994424141e+00 1.3564254277450114e+01 0 0 0
609 2 6.9277073090460277e+00 2.4239246411644788e+00 1.0801248624986799e+01 0 0 0
24 2 1.9487858942505376e-02 3.0108119507709352e+00 9.7991022297516857e+00 0 0 0
611 2 6.4748518256194565e+00 2.3681739856574477e+00 1.8325443879089299e+01 0 0 0
613 1 1.0553617307166759e+01 6.1871614163186059e+00 1.6821443032757031e+01 0 0 0
614 2 1.1147359324162597e+01 6.9164251821484983e+00 1.7073968597295057e+01 0 0 0
615 2 9.6917454882794019e+00 6.4844820370379459e+00 1.7127481705254837e+01 0 0 0
616 1 1.1744569325371389e+01 6.3646646973883465e+00 1.2042139018909177e+01 0 0 0
617 2 1.1509103746027511e+01 5.8770375690140861e+00 1.2827848156264864e+01 0 0 0
618 2 1.2723155797417530e+01 6.4684340749164919e+00 1.1903914614353670e+01 0 0 0
619 1 7.3370907431875700e+00 1.4162824895406931e+00 1.2321125945924534e+01 0 0 0
507 2 3.8795511459281338e+00 5.8298827800739161e-01 1.4657224492258116e+01 0 0 0
621 2 8.2076781293823000e+00 1.0894263510451048e+00 1.2032372633744565e+01 0 0 0