LAMMPS data file via write_data, version 8 Apr 2021, timestep = 21630000

576 atoms
2 atom types

0.3246397815942411 17.59536121839054 xlo xhi
0.11963878159643561 17.390360218391592 ylo yhi
0.46963978159378417 17.740361218390788 zlo zhi

Masses

1 16
2 2

Atoms # atomic

161 2 4.436968836270131 1.4581530489598387 4.708366459591448 4 -2 -2
224 2 3.41613387147846 2.7993830862120404 3.158352930816471 1 4 -2
223 1 2.523208203819512 3.103675148721325 2.9376016768051305 1 4 -2
123 2 1.4049519945516313 2.3643634598666456 3.932558656906954 1 2 3
122 2 0.6191007717065062 1.1258024260790886 4.548011586157488 1 2 3
225 2 2.6795386924878533 4.055116598631444 2.946064867382132 1 4 -2
121 1 0.6793087796572157 2.127524940308937 4.600162856013801 1 2 3
160 1 5.167810810127788 2.037884542903578 4.498092843230331 4 -2 -2
218 2 7.0925468594262435 2.777458971465469 2.1508886595506755 0 -1 1
86 2 4.950640335429361 1.5036336555802017 1.3362586300867236 1 3 6
87 2 5.471969342158064 1.7238055132955201 2.898438589518766 1 3 6
85 1 5.714260369405312 1.5495805796609905 1.9848752591872239 1 3 6
217 1 8.02151825071235 2.899228868442264 1.9573213990226739 0 -1 1
219 2 8.061061466180085 3.3812733333036387 1.1066734306196302 0 -1 1
56 2 6.864252887424033 1.1001671636384622 0.5946536594488244 -1 2 -4
63 2 5.4223457532277735 3.708925956610396 4.769977396290348 -4 -1 -1
543 2 8.6460537531449 1.3072002985431077 2.3877919130605654 -3 7 2
310 1 2.298922910055651 5.7733984150492486 2.624911058064317 0 0 3
513 2 1.126227491573345 6.285254010491953 1.6888758054476953 0 -1 3
427 1 1.403952350926612 7.507893883812013 4.2511229994516215 2 2 1
311 2 2.017507655941643 6.309913393364481 3.402009740526754 0 0 3
312 2 3.2436206664751737 5.961059106405346 2.5077418260259776 0 0 3
429 2 0.47626527741683244 7.228619171314541 4.522104560071094 2 2 1
407 2 5.749496468943027 5.563071559222619 0.925124678863947 -1 2 3
34 1 4.983636590135726 6.021760188651673 2.5972066486135903 0 1 -4
36 2 5.462665955130402 6.870145972143288 2.8482127354283646 0 1 -4
263 2 7.020435393500031 8.06493241142563 2.5835966602296225 -3 2 0
35 2 4.967150675316727 5.351128662225608 3.3285475590732223 0 1 -4
368 2 8.039762274659676 6.404040797957185 4.711343287010068 -2 0 1
262 1 6.191538320111814 8.190082640936515 3.122799084602649 -3 2 0
264 2 6.467223889047326 8.488220812178637 4.045544200837102 -3 2 0
283 1 8.115053522409179 7.664405782234348 1.2639321051276242 1 1 -1
284 2 8.611152051918907 6.8352119943037595 1.503423626047881 1 1 -1
285 2 8.729122847937157 8.402256425305202 1.2795709046342307 1 1 -1
39 2 0.4837027801618578 10.60665333301547 2.361943851185381 3 1 0
455 2 1.7058173099517329 8.821804051577505 2.861739448927728 4 3 -4
456 2 2.7601233645535967 9.909198692435117 2.469744297587658 4 3 -4
454 1 1.8649325054797727 9.531119186716806 2.1753882091834584 4 3 -4
381 2 1.7094959048170075 13.03300904095033 1.068793010677279 -2 0 -2
411 2 3.1517508561542456 12.774314608390391 3.374619092968068 -3 1 2
463 1 4.448420284292591 10.351503141007031 2.559278956761428 1 -1 -1
409 1 3.674263013352019 12.73693952294514 4.1913722325148 -3 1 2
210 2 4.533300016709679 10.459577296451666 4.415665197860606 -2 -3 4
465 2 4.736101767389316 10.830102754072353 1.7475992708216743 1 -1 -1
464 2 4.928460119636062 9.472948228325677 2.503824317494263 1 -1 -1
222 2 6.837519574059496 11.861437061089136 3.411332200895712 6 0 0
221 2 5.403280729843558 12.498014736729255 3.6017555724660144 6 0 0
220 1 6.369770699449224 12.705007720387474 3.5153908349473766 6 0 0
351 2 5.210353784389876 12.763945641688675 0.6370076795889182 0 0 -2
14 2 7.300914944621794 12.386611056889736 1.032894800857538 3 0 1
13 1 8.200878542701364 12.460712208367553 0.807647640035735 3 0 1
153 2 7.450020124786737 12.8940016998373 4.729586241363508 -1 1 -1
438 2 8.915192707998841 10.447445784662778 2.6911434340607188 -4 -3 5
436 1 8.367782747852916 10.727390929615952 3.4219040870505477 -4 -3 5
437 2 8.583697466404972 10.385842368928676 4.2880660212396 -4 -3 5
250 1 0.3519653143413461 13.818531577174182 3.9020139399080898 1 -2 2
380 2 1.0150823039018717 13.511711108302295 2.52872992817377 -2 0 -2
379 1 1.8386028321887191 13.31774854297987 1.9832953199926016 -2 0 -2
394 1 3.331985611541959 17.049220615089794 3.914737143402723 -3 -3 3
395 2 3.2825206266405105 16.71468129534881 2.977880270828111 -3 -3 3
572 2 1.7837247848127262 16.768270591391058 4.41203288419641 0 1 -1
112 1 3.3239674156631662 15.518404036255008 1.704363108011989 -1 -1 -2
113 2 2.716116143922751 14.753819610459933 1.7342509343209729 -1 -1 -2
114 2 4.242952329679161 15.223614992550328 1.7280014208300056 -1 -1 -2
396 2 3.846880218862749 16.41836154281069 4.410606908335646 -3 -3 3
571 1 0.876836576019675 16.635230825052876 4.784329270868965 0 1 -1
252 2 0.5188429666546208 14.785406178268836 4.0984970690767115 1 -2 2
458 2 8.81317335349091 14.496912244513661 2.723834479891887 1 -5 -1
542 2 8.460873906221849 17.04673664320283 2.445428695168423 -3 6 2
358 1 5.726325747241302 14.445780655568441 1.2216073288523042 1 -3 1
459 2 7.756293437852305 15.185774646632836 3.6631886807319165 1 -5 -1
457 1 8.051350295536631 15.055763181469883 2.657777630589243 1 -5 -1
360 2 6.456892853631578 14.824694609092688 1.7742211370079342 1 -3 1
474 2 0.4989668427149946 1.645554249883131 8.423080904602429 2 -3 2
168 2 2.6103743788498512 2.5062781879979843 7.718839173185865 1 -1 0
166 1 3.4898573921549474 2.4462248057794027 8.14946807750117 1 -1 0
207 2 1.000861121471063 2.6020394321902702 6.157570645980906 -1 3 2
205 1 1.1042141985615337 2.8054406418387368 7.118438809569828 -1 3 2
206 2 0.8686479918001654 3.7498365089235053 7.265672943845844 -1 3 2
246 2 4.397310021645246 3.924220674021574 7.802220419267471 3 -1 1
186 2 8.821129030646897 2.4383110929236875 8.421676712972047 -2 3 1
162 2 5.877674560336159 1.6004164623766988 5.072818505904449 4 -2 -2
92 2 4.823399237474745 1.152174678091464 8.273543559538302 1 1 -3
91 1 5.714346850949048 0.9205351491757661 8.46302050057762 1 1 -3
269 2 6.4443797184749565 1.004136314091323 6.941840779445143 1 1 1
268 1 7.096897822954794 0.908208111613128 6.122530165286138 1 1 1
525 2 8.4381540405756 1.900021917941703 6.163500506298407 4 0 0
452 2 0.8159929998488862 5.9316113744820536 8.297725747153452 -2 4 -1
317 2 2.4260788712075736 7.338873815990277 8.909519471690993 1 2 -5
428 2 1.8790681917487033 7.900930715818388 4.978811909477653 2 2 1
40 1 4.104885053497426 7.193588500968417 8.217580818730466 -1 -9 -2
294 2 3.3542891632709777 8.032386971356463 6.944836705134616 3 -1 -2
42 2 4.230413123135728 6.277319803658387 7.984273085113166 -1 -9 -2
292 1 2.95606900588364 8.535718836887503 6.215985421671968 3 -1 -2
62 2 4.849346423454882 4.6210132708701215 5.929568744904452 -4 -1 -1
61 1 5.216296581370656 4.633864342927189 4.979769294473058 -4 -1 -1
41 2 4.860336053692949 7.6773218917970505 8.683602748292115 -1 -9 -2
244 1 4.834755972275936 4.773250972673565 7.612545447572719 3 -1 1
369 2 6.664591111599969 5.720230342989225 5.398497743822336 -2 0 1
367 1 7.457297673463948 6.349797265799267 5.506922154617757 -2 0 1
245 2 5.668787977806785 4.833087804827763 8.148230726182145 3 -1 1
261 2 7.477049203136581 8.103988889351369 5.562151411162698 -1 1 1
501 2 7.973422252867655 5.279013261961017 9.057698822136393 1 1 0
267 2 8.905394885609747 6.053733482590014 6.981454576261431 2 2 1
435 2 1.3912953683079485 11.573704925981675 6.622513622682477 5 -1 -1
433 1 1.7248491358615645 12.469023616532402 6.258110461067035 5 -1 -1
410 2 2.9579500077928222 12.52215402116693 4.904870898745382 -3 1 2
115 1 1.0688694913136456 10.117993061497863 7.015867728988815 2 -4 -1
293 2 3.5786623519713032 9.268922998740864 5.946067861687141 3 -1 -2
117 2 1.8189291166406392 9.507951460362465 6.722329273672235 2 -4 -1
492 2 4.494896394162266 11.504435261863131 6.652702010363802 -1 1 0
491 2 3.9872213897972615 12.588168111170857 7.60884171521849 -1 1 0
434 2 0.9670445998240162 12.806454567052784 5.786144710954001 5 -1 -1
211 1 1.7129089645531477 13.06025330113434 8.98351112198416 0 2 2
116 2 0.5080846458001433 9.610710967482675 7.654636287392871 2 -4 -1
522 2 8.726815527715955 10.508115301442343 8.218041749718289 5 4 1
26 2 7.526825291758111 12.797672239202724 8.746459938305534 2 1 -2
490 1 4.656230646626302 11.936831385914372 7.482663861953395 -1 1 0
152 2 7.480244423962009 12.78748619506618 6.350338076246531 -1 1 -1
27 2 6.0619610253833125 12.49273924276376 8.11111052630822 2 1 -2
259 1 7.518624975076275 9.089586234362754 5.56520579490824 -1 1 1
260 2 7.883781892374887 9.372704716229457 6.425998671045538 -1 1 1
208 1 4.682975591013442 10.344134046215373 5.3289195885791525 -2 -3 4
209 2 5.554950223826848 9.921469704619254 5.466722317819981 -2 -3 4
520 1 8.328414643162764 9.646193801453865 8.010856849823323 5 4 1
24 2 1.265035418650906 16.983112008671522 8.059716987892726 2 -2 -4
282 2 4.064872179572304 15.081303619153385 9.061507368457692 0 -1 -1
22 1 1.3251508333464628 16.175390562648488 7.455943013309956 2 -2 -4
393 2 4.193774735703362 14.192321023211237 4.982591998677666 3 0 6
280 1 3.5181698787880564 14.833770151609173 8.232666392987495 0 -1 -1
573 2 0.9713775867504959 16.480065751609185 5.775680872339213 0 1 -1
392 2 4.059008516650361 15.050681474509702 6.182875248162933 3 0 6
391 1 4.539143780055294 15.057075035991906 5.357726766686125 3 0 6
213 2 1.3360914203091108 13.144316322901188 8.0879556659232 0 2 2
281 2 2.9327683691084623 14.12676328117627 8.543089790639486 0 -1 -1
23 2 2.1242181454578626 15.736318096838371 7.786751664814329 2 -2 -4
345 2 6.191911880839896 15.490897605868248 5.108804191297417 -2 3 0
344 2 7.562206721538011 14.893354077709336 5.6346324742457625 -2 3 0
343 1 7.197977924202881 15.617836427285528 5.169352520083289 -2 3 0
151 1 7.987814860087273 13.077977942566072 5.52442149952002 -1 1 -1
25 1 6.890426899964214 13.138984319064901 8.112188173516696 2 1 -2
138 2 6.429214071739764 16.524198446099525 8.594689112554574 3 0 -1
326 2 8.787412447807665 15.852781442268832 7.958527802514471 1 1 -1
270 2 7.2850897290751915 17.23098460299486 5.986973062440322 1 0 1
136 1 7.091777224276559 15.84751832463376 8.811507370450075 3 0 -1
137 2 6.841867281478592 14.950060100191978 8.56658728453152 3 0 -1
68 2 3.049593129676624 2.772632131258538 11.527084672650961 2 -1 -3
67 1 2.648164557244999 2.204544093557334 10.798262364760708 2 -1 -3
69 2 1.7477802168979393 2.152137908219926 11.117503933455842 2 -1 -3
545 2 3.1137827835249317 0.5615287233591036 11.429979715428301 1 -1 6
203 2 4.535434597136112 4.080221697127939 12.540653370717703 -2 4 -2
202 1 3.731924819541513 3.958076394479311 13.100277558968708 -2 4 -2
167 2 3.2154960389493747 2.4308665544801444 9.108261343140159 1 -1 0
111 2 6.393315859062648 2.7445656841555337 11.136624811075457 -2 -2 -1
109 1 6.523873953988501 1.907231431483655 10.637306894706636 -2 -2 -1
110 2 7.3704609014947575 2.1533997782500123 10.215621949474174 -2 -2 -1
567 2 6.324848066710117 0.5858937062257203 11.856309844648258 1 1 -5
58 1 6.1310423871077955 4.401282904403094 11.509422032581867 -5 -2 2
184 1 8.86871948453512 2.2812240970830246 9.40254251068587 -2 3 1
93 2 5.98094694075464 1.4382549366398016 9.30320488346851 1 1 -3
318 2 1.8343400694972618 6.839924956302376 10.336628420581524 1 2 -5
190 1 2.216788523210462 6.882212435828387 11.905662908073259 1 2 -1
192 2 2.9875201545887684 7.3323865921398 12.161248596922638 1 2 -1
191 2 2.2015071519147584 5.970829410899156 12.174596307064103 1 2 -1
316 1 1.6108135686232359 7.179472966974996 9.400047867390281 1 2 -5
118 1 4.207442016135184 8.349784510875034 13.132162007539028 -4 0 -1
554 2 1.3128155908964494 8.410435772854935 11.960920706989944 -4 -1 0
97 1 0.42309214501166975 4.636870289402376 12.10130312632364 0 -2 -1
99 2 0.3519744826550486 4.872059327689459 13.024426218390742 0 -2 -1
59 2 6.699010259087089 4.7437990263754015 12.176258080232838 -5 -2 2
484 1 8.230238838099226 4.978568022097522 13.115715587949103 0 0 4
60 2 6.309087544468968 4.9856035454828636 10.750781841361418 -5 -2 2
76 1 6.359622809860225 8.166117102003206 9.48818391541335 1 -3 3
164 2 7.523101075286782 8.17541188741697 12.659504149485496 1 -4 3
77 2 6.399746572069957 8.214902140523126 10.424185911115837 1 -3 3
120 2 5.139473416968124 8.368841088747992 12.813026091007284 -4 0 -1
163 1 6.8116056915145995 8.736434364269343 12.209181012603581 1 -4 3
500 2 6.919155712195966 6.447296809964237 9.192995647532971 1 1 0
499 1 7.010487630361105 5.433039261276786 9.218456665593873 1 1 0
336 2 1.555738095407222 11.508325492457603 12.824582219028422 2 -3 -3
412 1 3.3061108371218473 10.82026465671023 12.56167259871275 2 0 -1
414 2 3.491580744275208 9.947993716729188 12.879487747316468 2 0 -1
356 2 3.8426842158808014 12.499182501475953 12.67445386944002 -5 -5 1
413 2 3.3388346727748113 10.762307635006753 11.519044307122712 2 0 -1
397 1 3.522974158626814 11.06308807680796 9.922562220391985 1 -1 -4
399 2 2.642272906980467 11.412237364171542 9.6545643278059 1 -1 -4
334 1 0.6740464715127775 11.806385626991434 12.551021713754754 2 -3 -3
555 2 0.7596503388378409 9.877322151664856 11.915538444874356 -4 -1 0
553 1 0.5796389784763851 8.962656095219613 11.770513224155492 -4 -1 0
398 2 3.949467662071911 10.725560898163168 9.164706759328734 1 -1 -4
78 2 6.9363263131130175 8.858643080997739 9.121035609961464 1 -3 3
302 2 8.554211514097746 11.481105278054976 11.428887514783757 2 -3 2
165 2 7.264225208539468 9.607122008184959 12.121283129631859 1 -4 3
301 1 8.267986061441343 10.959238359390852 12.236780320394077 2 -3 2
303 2 7.823533251049562 11.663353389043284 12.732251461860686 2 -3 2
103 1 8.877287956002787 12.345071065448721 10.12800961252299 3 1 -1
304 1 0.49113951079402 14.006509818484545 11.043347840806002 1 0 -1
212 2 1.1957017944065025 13.669789000482245 9.52849857382024 0 2 2
544 1 3.0811242182981826 16.99930299048469 11.9801423909595 1 -2 6
353 2 0.7710553764078163 15.137063123865941 12.245414119471958 1 -2 -3
354 2 1.6959007322686555 16.23494054193281 12.782303893294415 1 -2 -3
546 2 3.6691541339406197 16.352109210186782 11.498509012163437 1 -2 6
355 1 4.186243877665452 13.42482330489001 12.70263156199572 -5 -5 1
12 2 4.547949530913138 14.235370285466306 11.082845623455302 -1 -1 0
352 1 1.1374429713809024 15.50247732261244 13.116778612386748 1 -2 -3
306 2 0.5995478983371143 13.118776043219983 11.559982378869943 1 0 -1
565 1 6.39963070455633 17.027500159881587 12.387209481340289 1 0 -5
566 2 7.145163634272084 17.197777653493613 12.974778428912659 1 0 -5
405 2 5.787648408847946 13.370807389054503 12.955082807693882 4 -3 -5
10 1 4.6942973049070895 15.11839377515352 10.60825897541987 -1 -1 0
383 2 7.799000731022817 15.421054727533104 11.001390725466642 0 1 -1
384 2 7.886074296774874 14.28835928540967 11.993611503091419 0 1 -1
11 2 5.555821127467069 15.500620270244267 10.966844640168873 -1 -1 0
382 1 8.417176943481495 14.763700286493265 11.36043641085116 0 1 -1
104 2 8.795791483851552 13.307635670984656 10.373370741850652 3 1 -1
403 1 6.728584624171262 13.133047581132978 13.188717811412785 4 -3 -5
290 2 3.3243501196844814 2.481473516361875 17.39162265954931 -3 3 0
298 1 1.9730267312555188 3.635752354963018 16.916955089954012 4 2 -5
204 2 3.998279827911838 3.230433471109264 13.761163431885176 -2 4 -2
291 2 3.373059428380378 0.9986019178555463 17.18422216879494 -3 3 0
289 1 3.9845788572651233 1.7500111994153829 17.26701419168466 -3 3 0
273 2 4.524502908442046 2.0331280653032833 15.737210266372369 2 -4 -1
299 2 2.526462051176092 4.252337929653395 16.40558657780699 4 2 -5
300 2 1.6881538082850813 4.070953886026624 17.71975383483814 4 2 -5
314 2 0.4468000367365469 2.270306470850288 16.805058094121538 -1 1 1
19 1 8.59179648133288 0.48915119800322504 13.824220940924265 4 1 1
485 2 8.025387237597918 4.302547935628967 13.767001774210645 0 0 4
74 2 8.077269479600933 3.5856036213231017 16.150765720212103 -1 1 -2
57 2 8.027419532810194 1.062765485004729 16.786966021210304 -1 2 -5
272 2 4.97551191667395 1.4472184908205408 14.404724853448256 2 -4 -1
271 1 4.821552985604834 2.299770261852679 14.806785438564022 2 -4 -1
55 1 7.119777304761726 0.756811584081626 16.98906316643547 -1 2 -5
538 1 7.643688241452075 2.832037633460626 14.54964898571593 5 0 4
540 2 6.743174289718221 2.6473217089352024 14.802415309207337 5 0 4
539 2 8.115572008582543 2.048778300544091 14.302444031674828 5 0 4
73 1 8.276290673970232 4.22610725882381 16.87858299495915 -1 1 -2
141 2 3.7223762955626065 4.918460809087399 14.572233383870827 -4 3 -5
139 1 3.584015280593675 5.320735592834539 15.435592238638481 -4 3 -5
140 2 4.476739235885761 5.438949071333485 15.913184612745919 -4 3 -5
563 2 1.1306993771547742 6.614386048030196 17.04963170320449 3 -1 0
562 1 1.4216727376523286 6.922179915960056 16.15892149504893 3 -1 0
564 2 2.131588583233938 6.323844325132577 15.844490889739886 3 -1 0
134 2 1.7367373926579228 8.71081919189315 16.434092659049476 5 -2 0
119 2 4.266088422814394 8.337065457318523 14.119030281601917 -4 0 -1
486 2 8.342139497674047 5.823740873166346 13.552639089586599 0 0 4
75 2 7.405881655701916 4.672108800656488 17.044834900260103 -1 1 -2
406 1 5.943597755165016 5.423562398196894 17.212532100187484 -1 2 2
517 1 8.323269957947124 7.336699878737222 14.034941457944061 -3 6 -2
519 2 7.799839784382921 7.466466029375794 14.792387544146852 -3 6 -2
33 2 6.027836733247266 8.086049850564654 16.115025012630678 1 -4 1
31 1 6.807641177598745 7.507688509847883 16.236738912764476 1 -4 1
32 2 7.292554504905868 7.723975892531588 17.055814253416628 1 -4 1
408 2 6.338433768495259 6.183936331111816 16.78897092090633 -1 2 2
216 2 3.8940175734747275 9.070560768751534 16.387194427841926 3 -3 -1
133 1 2.0616966931294285 9.588136726112735 16.625876853036292 5 -2 0
50 2 1.7278025275038056 11.715184509189429 16.499060372218345 0 0 -2
49 1 2.203592446579289 12.5136678808534 16.782172157910956 0 0 -2
350 2 3.831919723206765 12.11538110994672 17.422156606848084 0 0 -3
135 2 1.9845064617453323 9.53583199854521 17.62070371050408 5 -2 0
214 1 4.675130281320627 8.892626381649288 15.809916326148675 3 -3 -1
240 2 7.900155573443636 10.472757894082264 16.04006846714318 2 1 0
44 2 6.439091565004642 11.571090335966119 14.707037446058843 -4 -2 4
215 2 5.156802877168701 9.718967370298744 15.577638382364341 3 -3 -1
43 1 5.991228053032077 11.108906853708312 15.401036207699931 -4 -2 4
45 2 5.622437417227639 11.735946214735657 16.019399307216492 -4 -2 4
238 1 8.683471617285683 10.380542717349513 16.60373506473743 2 1 0
15 2 8.400530173838701 11.515962817748356 17.681078623421968 3 0 0
349 1 4.790758002257494 11.94306264829632 17.572571204571943 0 0 -3
357 2 3.6381129249098794 13.779497761829154 13.431061443291632 -5 -5 1
51 2 2.3454238825517284 13.166097751129438 16.031048199078594 0 0 -2
248 2 2.9499681143240295 16.315814040320074 17.48425109281314 0 0 3
447 2 3.720451345458041 17.122223447534292 13.611561840612426 2 3 0
445 1 4.131711363749098 16.975435938891614 14.483317005451191 2 3 0
481 1 2.773470321681914 14.242078525496254 14.815940797993687 -1 0 -2
249 2 1.5972682639268152 16.80895375068408 16.878532200053098 0 0 3
483 2 2.0295655394086904 14.756980400020819 14.356737298832712 -1 0 -2
482 2 3.295884646449818 14.867510825731445 15.297809931192889 -1 0 -2
446 2 3.3469978332708847 16.99586497666864 15.136492072126075 2 3 0
247 1 2.5787124799547168 16.75133906876575 16.67707060905997 0 0 3
404 2 7.090212064012217 13.900927224783858 13.739212468143943 4 -3 -5
359 2 5.8469521184841895 14.850485464861157 17.595163027709425 1 -3 0
450 2 7.068641899973055 15.377978239072942 15.147115982715123 -1 2 4
448 1 7.912278757517668 15.052506539896509 14.67917937866623 -1 2 4
462 2 6.242881423051597 16.603324487767445 16.508094182637365 -1 -1 -1
460 1 5.744770931420408 15.872125606117262 16.038639671682983 -1 -1 -1
461 2 5.207833112113154 16.38040574121726 15.36132980879091 -1 -1 -1
21 2 8.435006858682868 16.9188389492298 14.290407412067838 4 0 1
449 2 8.55949320922051 14.824184330379738 15.406392323787182 -1 2 4
361 1 9.76548585070906 3.5376550833299265 3.988185611092041 -1 0 2
54 2 12.750643849381206 0.6753733160032207 4.467818231695846 -2 3 -2
373 1 13.190245310678474 1.8712227837365736 3.3700097829953224 -3 2 -1
375 2 13.187868832116848 2.763875343732717 3.769265602309089 -3 2 -1
374 2 12.89560317754067 1.9746511134600222 2.4833004251227213 -3 2 -1
503 2 11.803127779273447 4.291212475150503 3.9527793150701513 0 2 1
84 2 10.698646115074608 3.2052825481984315 2.3010234387603004 0 -2 2
82 1 11.327201240862628 3.118749460541118 1.5439727897630755 0 -2 2
362 2 9.013430929003887 3.4430564417627476 3.3572243107065542 -1 0 2
424 1 13.103010271197439 0.9089662925340172 0.48929061816666963 -5 0 1
541 1 9.082752155226915 0.48430876930023875 2.5871675353490415 -3 7 2
426 2 12.234710065239662 0.5937151751669572 0.6869327344984402 -5 0 1
83 2 11.169568214722503 4.0254866485801175 1.1822131020782398 0 -2 2
425 2 13.721007888061552 0.28597905688381287 0.8452937460223433 -5 0 1
233 2 16.56074271440839 2.7753785984394503 3.9680016565791236 5 -2 2
232 1 15.75388602228923 3.231494638938636 3.615922982104704 5 -2 2
234 2 15.169692699076231 2.614309013260429 3.0624416357112656 5 -2 2
17 2 15.270333845146892 0.22469995650034474 4.546334860103655 -3 1 0
504 2 12.862250020187412 4.8146584572687505 3.1386935136413316 0 2 1
79 1 11.504222215023352 7.267886287696865 2.5500909933802896 2 3 2
80 2 12.394030086310197 7.65521395354865 2.7445874470383913 2 3 2
81 2 11.562412756445607 6.639633756923472 1.8446655265116307 2 3 2
332 2 10.72361172228621 8.732801129570467 2.117971754806397 0 -1 -3
6 2 10.0098901884424 6.801831111268175 3.374110186928938 0 1 1
502 1 12.747846354155286 4.5300575948287864 4.0466568632232525 0 2 1
5 2 9.521566865139146 5.396440634796222 3.6258448380106567 0 1 1
4 1 9.180379768150353 6.281613580937012 3.353459499820364 0 1 1
511 1 17.58524665463315 6.5885454862831265 1.176904163356242 -1 -1 3
174 2 13.757904823780187 4.463982356472858 0.9113122365385512 -2 1 1
347 2 15.67482189265281 4.9155410265164265 3.1016812747219227 -3 -1 -6
512 2 16.861258813319647 6.237887553916912 1.7640213741289572 -1 -1 3
346 1 15.54745188195848 5.836281460624356 2.913258955605573 -3 -1 -6
348 2 15.751997606001195 6.187584540780793 3.793576768065846 -3 -1 -6
173 2 14.424905516300708 5.67402394871536 1.622450180741493 -2 1 1
506 2 16.445250881884085 8.217386826514002 1.1741563864508708 -3 -1 4
489 2 14.287776618079157 8.544797701648102 2.230664239745033 2 -2 3
96 2 14.018592886114323 8.612730828337606 4.509745971317287 -3 -2 3
487 1 13.60825485716242 8.611681718526276 2.9272967336131783 2 -2 3
172 1 13.601921104475966 5.4134312962729805 1.1651834751596748 -2 1 1
331 1 10.084850155798671 9.41758078377931 1.8043165153826195 0 -1 -3
333 2 10.465794951548814 9.591709917177306 0.8709916781480945 0 -1 -3
417 2 12.607048980512213 11.327938978162386 3.805391222711553 0 -2 0
416 2 13.027477378699754 11.614558067366259 2.1986494511743593 0 -2 0
256 1 12.170859301588496 12.275321068995249 0.7673338606717698 3 2 0
65 2 9.457907569015205 12.711678939325136 1.7747902840076761 -1 -4 4
66 2 9.896373737141456 12.701787823935737 3.231670139960991 -1 -4 4
258 2 11.421746060484914 12.524923361183466 1.3224577938206923 3 2 0
422 2 16.796771786087845 12.277843010223814 0.9683655783899713 1 1 2
505 1 15.773727032626299 8.90814235457804 1.1130337312537981 -3 -1 4
488 2 13.504604035275264 9.639077773415481 3.040015043411572 2 -2 3
415 1 13.341159692559758 11.332284983517338 3.086393202441939 0 -2 0
507 2 16.23784089647768 9.691216912513557 1.3892141797796078 -3 -1 4
38 2 16.554575145307606 11.151602221456441 3.234589739282569 2 1 0
37 1 16.915889973700676 11.049961547460402 2.337276968324194 2 1 0
421 1 16.49544580944735 13.046140534353666 0.5484735362206905 1 1 2
420 2 14.43260605431085 12.648775983409802 3.995381162416337 0 -1 2
423 2 15.564043174326509 12.952220102054627 0.4919830994676765 1 1 2
509 2 10.257746846649171 16.621313387503964 1.4592666126103448 2 2 0
508 1 10.87120068205187 16.050862543645533 0.9309558212780933 2 2 0
510 2 11.464256360350413 15.627657821424124 1.632254280040141 2 2 0
64 1 10.153721899331725 13.103152075494723 2.354162138402968 -1 -4 4
432 2 11.686212310658625 14.664297259872244 3.7926590642565756 0 2 2
431 2 12.526472293173706 15.928612965107385 3.6321224849009472 0 2 2
430 1 12.313753696934526 15.105601612663573 3.18536792358308 0 2 2
558 2 9.414858516812444 17.371277610876636 4.344719791208008 -3 -1 1
16 1 15.40824762174685 16.6890031000008 4.057999733218012 -3 0 0
18 2 16.36836438908328 16.58114412060745 4.328703405791118 -3 0 0
419 2 14.335812487526406 14.016506344150322 3.428425329810255 0 -1 2
418 1 14.806173823073083 13.539876520326168 4.067391298410465 0 -1 2
131 2 15.099063533185697 16.66749811388878 2.3107462476303464 1 -3 1
251 2 16.654147654261187 13.760294688331289 3.824273030761988 0 -2 2
130 1 14.980573412458368 16.640075933020317 1.32028398332958 1 -3 1
132 2 15.848486719901759 16.58597859899783 0.8696058541606895 1 -3 1
523 1 9.010362333524903 2.647638148033132 6.406667972405107 4 0 0
524 2 9.891142367836188 2.2837582261946063 6.662846598088393 4 0 0
53 2 12.308107976444898 0.7013029822832282 5.932230656076432 -2 3 -2
527 2 11.569179861403013 3.1540253478989553 7.014659503218 -2 3 -4
526 1 11.620638096588788 2.0939046155386145 6.924353585278596 -2 3 -4
528 2 11.968216576332674 1.8409662777932045 7.795015922362272 -2 3 -4
307 1 13.13983231273728 0.6263866368032563 8.666800009661843 -2 -2 -3
363 2 9.559880567721564 3.0730924535823045 4.808323938179884 -1 0 2
146 2 13.908526884047175 3.5299405760177893 5.692736003959895 -3 -4 0
309 2 13.665854280317715 0.5048617034975815 7.884478384914 -2 -2 -3
101 2 16.070193098513126 0.8443855536229138 7.578091314649415 -4 -2 3
147 2 15.238950714251464 3.3993511889420605 5.107823726142219 -3 -4 0
402 2 14.968012959020292 3.7539325369256136 7.486800022427272 0 3 1
102 2 15.099582189949919 1.6281603158616096 6.62618748917029 -4 -2 3
145 1 14.775909375002406 3.3163366265259264 5.969933997484761 -3 -4 0
400 1 15.100798217497253 3.96450601657415 8.472867084527442 0 3 1
100 1 15.314981093195971 0.7445246568446486 6.958939783548702 -4 -2 3
472 1 17.417239569180555 0.9162390126333285 8.931356815762044 1 -3 2
466 1 11.723778510424456 4.642048456490416 6.900821859727824 -3 1 -2
467 2 12.321751176197724 4.967390159959009 7.6414728038558986 -3 1 -2
468 2 10.819502035329723 5.023064057660613 7.089442663850694 -3 1 -2
265 1 9.475306556716308 5.840629234614395 7.767033282840029 2 2 1
48 2 10.835145239786476 8.45160098052973 5.610627419319163 1 -1 0
194 2 12.18616489888793 6.703707489727524 6.161889856616561 -2 1 1
193 1 12.102017879179568 7.646431250280994 6.402359270745827 -2 1 1
266 2 9.754149858314113 6.725147766530518 8.039747162946659 2 2 1
28 1 10.450995600466355 8.216071054744166 8.700584129548616 1 2 -4
29 2 11.260198653057158 8.150374171166517 8.106798317871064 1 2 -4
195 2 12.939724799242418 8.096939676429896 6.075722798790623 -2 1 1
94 1 14.482503606048109 8.629661720402453 5.419342325894541 -3 -2 3
401 2 14.49551296828337 4.74357755267051 8.661752049244276 0 3 1
495 2 16.640565718621627 6.258339393885324 6.105087679634979 4 -1 1
241 1 13.298197211700783 5.92221834894034 8.484099853578641 3 1 0
451 1 17.499887855540603 5.457410213186873 7.6948787068278985 -3 4 -1
494 2 15.687346499991683 7.361006462990779 5.492524098549039 4 -1 1
493 1 16.396492215643228 6.670074639681003 5.240930111006297 4 -1 1
453 2 16.807217389213353 5.095670662273138 8.25768244335936 -3 4 -1
338 2 15.207747514525057 8.540213633083221 8.554294898111129 1 1 0
337 1 14.23672974751238 8.299245178643227 8.543090632128198 1 1 0
242 2 13.874661930718705 6.644304387603278 8.187719710237477 3 1 0
521 2 9.127781232527985 9.084697331679937 8.181055579276192 5 4 1
47 2 9.392818047512089 8.920820904354073 5.259970249685196 1 -1 0
46 1 10.2916061915775 8.926493485550106 4.953273130945253 1 -1 0
342 2 11.220108493978918 10.441658589365106 5.221006267486316 1 0 -4
340 1 11.83271132938458 11.178763227074608 5.278415662011236 1 0 -4
341 2 11.228819094117103 11.95148862081804 5.203284375222669 1 0 -4
529 1 13.260944452156561 10.688652991050711 7.664879819108289 3 2 4
530 2 12.630577320727395 11.073768465814553 8.373736780889782 3 2 4
531 2 12.856457000626223 10.785961571134814 6.7928272219557595 3 2 4
197 2 11.641039055565775 13.025329420324548 8.875048575964955 1 0 1
339 2 13.779327362989791 8.902209074633612 7.952619725757108 1 1 0
442 1 16.065476412486074 11.026374883173448 5.096367301133227 -5 -2 7
443 2 15.814557251439522 11.708118018694254 5.811325893802641 -5 -2 7
95 2 14.846615150124352 9.486731727604928 5.5282948859796335 -3 -2 3
182 2 15.124958235140019 12.17072934686072 7.61328653398788 -2 2 1
181 1 15.946864409057854 12.46198451057007 7.243591615092008 -2 2 1
444 2 16.610422198620856 10.448228004612883 5.602753929719706 -5 -2 7
568 1 16.817759291679522 8.868598175131408 8.86162690851542 1 -4 1
52 1 12.584825677300717 17.385688598430953 5.266882167528702 -2 2 -2
557 2 10.840724555469405 17.291611254362536 5.042907217457657 -3 -1 1
177 2 12.67620364343488 14.423862343730148 7.111627971539612 -2 -3 4
176 2 11.164691366841117 14.683944388522864 7.434467356689438 -2 -3 4
275 2 9.518276159832386 13.352134559855866 5.316352790209687 4 -1 3
274 1 10.477094025315843 13.406455200593028 5.105727060632201 4 -1 3
175 1 11.868128892587903 13.97328839292139 7.421351906011693 -2 -3 4
556 1 9.86291516080081 17.117904787501285 5.180991388576362 -3 -1 1
327 2 9.59584155387439 16.05295380614638 6.580540102439414 1 1 -1
325 1 9.645590618346898 15.682777380863113 7.4947751489673 1 1 -1
276 2 10.897074748636374 13.69390441727921 5.936642455594037 4 -1 3
386 2 16.861462063510146 15.574166078372983 7.860652977351055 1 -4 -1
371 2 13.522299883621383 15.802671204851512 5.996348533318962 -6 -3 1
387 2 15.327128972132762 15.376212075760131 7.521588871419786 1 -4 -1
372 2 14.46936400145858 14.69058813819278 5.545432323037288 -6 -3 1
385 1 16.02939981233001 15.140032382190746 8.101628019076013 1 -4 -1