LAMMPS data file via write_data, version 8 Apr 2021, timestep = 21631000

576 atoms
2 atom types

0.25064117202807373 17.66935982798287 xlo xhi
0.04564017202693573 17.464358827983254 ylo yhi
0.3956411720241031 17.814359827982845 zlo zhi

Masses

1 16
2 2

Atoms # atomic

204 2 2.9792343644608894 1.2488448965502985 2.9275634267608672 2 1 0
340 1 2.7330617735616607 1.6769442753873232 1.071541853664385 0 -1 -1
202 1 3.0540604804218634 1.355289532321674 3.912982393589923 2 1 0
560 2 4.301601945857394 2.5438214520620335 4.2521187341848 -4 0 1
246 2 1.574582298699858 1.7223588811618997 4.72346870724854 0 2 1
341 2 1.9043832090201347 1.1317468859237931 0.8346862611641076 0 -1 -1
203 2 3.153502904776079 0.49565610319740405 4.3618919334574455 2 1 0
342 2 2.7475954994533636 2.6435058653590837 0.7916492540368988 0 -1 -1
41 2 4.068219264420034 0.9077536016950434 0.4291250085435614 0 -2 0
559 1 5.116727887730259 3.024198974898969 4.164284981007725 -4 0 1
330 2 7.207635384486783 0.7351971197304479 2.4174798179285517 1 2 2
329 2 7.23016352301442 2.3863284297304705 2.567674797522738 1 2 2
561 2 5.815723355704599 2.472630462895989 3.8820288542267942 -4 0 1
328 1 7.37008549918138 1.520424494076685 3.0457757129620475 1 2 2
142 1 7.23081977645617 4.012821830257416 1.4932216952294164 1 3 0
144 2 6.334547512819374 4.291997844435529 1.63731107485563 1 3 0
494 2 3.594149162077327 4.686930414699949 0.9680527032934279 -1 -2 1
495 2 1.9661629466522883 4.60368143011181 0.8301863437540419 -1 -2 1
483 2 1.4867422157993642 7.279082545519218 4.555854439825528 0 -3 1
512 2 4.232246166241824 8.241124009256248 2.9644098282836797 0 0 2
513 2 4.533406023165959 8.243958819838696 1.3547210154157006 0 0 2
331 1 0.38431184243519645 4.566701053476905 1.4309388310218774 -1 -2 -1
237 2 0.5132430941260977 8.194825197061224 2.5817321473451993 -1 1 0
372 2 4.695379916205579 4.76131142889226 2.9156810711948755 1 2 -3
370 1 4.749882035052963 5.119256356425982 2.020121360104794 1 2 -3
371 2 4.813834442018418 6.123250644946876 2.171205863525235 1 2 -3
143 2 7.9138654259776215 4.720501598782401 1.801974789277118 1 3 0
511 1 4.709114399335487 7.759559831744208 2.2582803917863363 0 0 2
206 2 8.228789572113417 5.858581580250654 3.6059375289314914 -1 1 1
286 1 7.546107794873874 7.811364862492513 1.1259876870916223 -2 -1 -2
207 2 8.328141203423968 6.54443114354678 2.217653102213912 -1 1 1
287 2 7.927905669811589 8.658851204405371 1.3562278484993087 -2 -1 -2
205 1 8.647201265942943 5.750813075350137 2.6966430745013255 -1 1 1
288 2 6.611874606246894 7.855863686886254 1.2106905003099477 -2 -1 -2
235 1 0.7476783040742234 8.758460005736836 3.3411071216940478 -1 1 0
236 2 1.7004207314596027 8.968218129890213 3.367172122819882 -1 1 0
4 1 3.220153798879567 9.414874985454318 3.8761881680481856 1 1 2
6 2 3.568511969333409 10.302978215813374 3.635340391652048 1 1 2
393 2 4.198818705275723 12.3051953339475 4.126925991933828 1 0 0
456 2 1.217160841442964 12.398812799890086 0.5554363973943021 0 2 0
391 1 4.708372499315057 11.696939229091095 3.49146376648229 1 0 0
392 2 4.775850144481071 12.217456545709338 2.655199309361539 1 0 0
506 2 6.30684429601705 11.261020989100349 3.802341924068913 -4 -1 0
505 1 7.090050271481538 10.648028274855717 3.773650125952655 -4 -1 0
320 2 8.351540058912581 10.197488773720057 2.7862504364239777 1 -2 1
507 2 7.743104149655113 10.936598581127702 4.483019158953936 -4 -1 0
401 2 6.510042959103865 9.243576634596328 4.744754112895673 -1 -2 -1
263 2 5.560128726055694 12.284437124219158 0.5582930251928807 1 -1 2
487 1 3.4180111732640452 15.326410546230806 0.4440610706878364 0 -2 2
376 1 2.9139846859337664 13.671073486669457 4.472362111668363 0 -1 4
378 2 2.4844285376515884 13.958065831804534 3.6064535836876073 0 -1 4
544 1 1.5952589686245182 14.237717686899824 2.1746678955327146 2 -3 2
545 2 2.0831113516785753 14.823950352006477 1.5824903450253176 2 -3 2
546 2 0.6906139268130113 14.629720461623899 2.1078908896804354 2 -3 2
175 1 5.226449032616649 13.429347103196669 1.4548659307082856 0 -2 0
44 2 8.352201185211875 14.531371866760473 2.8206425412665626 -1 -3 0
416 2 6.187710335242099 17.319769241068077 1.08903653745462 2 -1 -1
36 2 6.745255240128134 15.702906636526535 2.6551657851990997 -1 -2 -2
34 1 6.6664002495279 14.858292787242354 3.159523128566187 -1 -2 -2
35 2 6.044876268366742 14.908561048572793 3.8839129493763123 -1 -2 -2
176 2 5.792418112169298 14.000804929278138 2.0303093224956723 0 -2 0
415 1 6.935682931086237 16.720707434805146 1.450078960493357 2 -1 -1
177 2 4.631328223195263 14.100884819623753 1.0261257769895633 0 -2 0
417 2 7.317397293108865 16.394923212726994 0.5614611809768986 2 -1 -1
492 2 2.091901239680565 3.0316609716292255 8.033041650678259 -1 -2 -1
490 1 2.2113686075174535 3.2854228740798406 7.131664575033029 -1 -2 -1
244 1 0.7602455703447848 1.7454604708572232 5.275146589389848 0 2 1
491 2 1.4985845997282716 2.856254569931539 6.67641031747307 -1 -2 -1
231 2 3.4781868352403027 2.3109903497863518 6.9637039995890735 -2 1 1
229 1 4.202909737461405 1.6408124335001082 7.027656871020979 -2 1 1
230 2 4.453543490784326 1.2602502631928485 6.186141326044386 -2 1 1
110 2 3.5131568503139916 0.050123331329373855 8.074145458591822 0 0 0
305 2 6.916749826275278 0.7314965951609258 4.9084968638771835 -1 -3 1
47 2 7.693587072018201 1.7139924364892465 8.673015386225599 0 1 0
459 2 4.774465813375066 2.4128026092430463 8.45153813962974 -1 1 -1
194 2 7.007912541446133 1.767331662807978 6.674873428916006 3 1 1
193 1 7.554175462418264 2.447690925073937 7.066602301675851 3 1 1
304 1 6.297738380033141 0.6538972852364153 5.698096904504509 -1 -3 1
195 2 6.866053488059482 3.2077202017982267 7.030285998201538 3 1 1
336 2 5.5441721622483655 4.040458208347596 5.523423082704114 2 -1 -2
11 2 8.799724200266162 3.7889068100773744 4.754856603329243 -2 0 0
481 1 1.1401704844545728 6.869314145922301 5.372402657243428 0 -3 1
126 2 3.112312986724418 4.990252432782334 7.053991407934885 -2 -1 0
482 2 1.9658474890120128 6.668720064270671 5.9411594066765225 0 -3 1
124 1 3.5848867106979307 5.82881057607535 7.031986699229339 -2 -1 0
24 2 4.59553505278994 6.524811997148499 8.389635711499123 1 0 1
125 2 4.444220852205261 5.393517797388424 6.682798461111402 -2 -1 0
409 1 1.6843692915202166 8.694793571189326 8.61454905065675 2 0 -1
515 2 1.6955845923581043 5.4671088202406715 9.05287918463653 1 0 -1
410 2 1.2797736715167147 7.795975756879022 8.74307275678645 2 0 -1
514 1 0.8450810311341834 5.869876082944065 8.988740584156488 1 0 -1
8 2 8.730091374068119 7.069672610637614 8.679493009395772 -1 3 -1
9 2 8.772319484765855 8.523762670525201 8.439953815852647 -1 3 -1
7 1 8.264094841949621 7.8443218793665945 8.992569761312252 -1 3 -1
334 1 5.783800556398715 4.458350280466276 6.380378280234461 2 -1 -2
335 2 6.426547954142968 5.090217908330405 6.085849753590547 2 -1 -2
139 1 7.476254820636035 6.2334627476403 5.273411979753114 1 0 -2
140 2 7.176619718352603 7.146046194341231 5.506483484772482 1 0 -2
141 2 8.110953742750612 5.93145313917898 5.934843268915154 1 0 -2
400 1 6.393106224091723 8.624598087966184 5.459581084161383 -1 -2 -1
402 2 5.450480976181992 8.453135471659676 5.569691526225718 -1 -2 -1
5 2 3.2753592198659436 9.344723433397537 4.8648680761672365 1 1 2
208 1 3.1352927258848964 11.993361530329553 8.770963631704126 1 -1 0
473 2 0.7415657672355465 10.370720729815027 8.328230712787185 0 1 1
27 2 2.925321860618611 9.318196248174553 7.185062920521406 1 2 0
25 1 3.633238995266742 9.594863254808564 6.602513083115177 1 2 0
99 2 1.5194983583224997 12.811894096795413 5.0980997756011615 0 1 -1
26 2 3.7313426696380794 10.578517888817238 6.6547968915739455 1 2 0
97 1 0.7182056149422867 12.296424676090531 5.438217544775533 0 1 -1
119 2 4.133823651498315 12.501615151281625 7.2094064084889995 -2 3 -1
118 1 4.574444553051642 12.09652580707139 6.448009638723236 -2 3 -1
474 2 0.37328466177165354 11.337361437362711 7.1089109736605245 0 1 1
191 2 8.931173087694127 12.149647574460193 5.657255404035698 0 0 2
105 2 6.971703475957838 11.512989994938339 8.992098679591534 0 -1 -1
534 2 6.573520464911835 8.926510262858564 8.32125163404213 2 2 -1
533 2 5.185092707878586 9.407956055092551 7.658261151742981 2 2 -1
120 2 5.4637098917001525 11.929390970603402 6.855532172641481 -2 3 -1
192 2 7.999369110137719 11.922615647454492 6.821014256297687 0 0 2
532 1 5.664319080948797 9.122388717347366 8.455352070825832 2 2 -1
103 1 6.90302580550181 12.190355886091867 8.250293333651165 0 -1 -1
190 1 8.33319640913329 11.483678981925395 6.034893258350508 0 0 2
104 2 6.708716267378792 13.018928828823515 8.724261430739919 0 -1 -1
377 2 3.3466078048995302 14.467879181803799 4.775581449155938 0 -1 4
130 1 0.5182002195246762 16.742421103411168 8.913902724033388 0 -3 2
50 2 2.213722266360604 16.376097000425624 5.304131419596469 -1 1 1
49 1 3.16300291705253 16.613589611081817 5.247607499954987 -1 1 1
132 2 1.1973222476425254 16.601598476424474 8.237733767961407 0 -3 2
109 1 3.203272783490819 16.542876585116566 7.920549194355857 0 -1 0
51 2 3.4422557818668134 16.6143650610856 6.163986199886863 -1 1 1
111 2 3.464612219106374 15.885922944222562 8.649425713592597 0 -1 0
572 2 4.9462128576383275 13.66087992397766 5.726830703599775 1 -2 2
398 2 7.2515165455739865 15.744088335244466 7.94626477430252 0 0 0
573 2 6.026112074958095 14.914819423888346 6.073693285496265 1 -2 2
397 1 7.236786949473286 15.805102292468879 6.970321133872239 0 0 0
399 2 8.104187262885212 15.491198969109057 6.700431936211771 0 0 0
306 2 6.7000471232290355 17.35244236769508 6.204823379672871 -1 -4 1
571 1 5.291653609642855 14.60944826620799 5.488011413316205 1 -2 2
275 2 2.1299522814107266 1.3864589807654921 10.485930151736722 1 0 -1
274 1 1.8906157261220464 0.5171126508202768 10.898039956938382 1 0 -1
79 1 2.3535659552785937 3.072370514174906 9.845572623523966 0 1 -1
81 2 3.3113334260947407 3.077537426486111 10.060937987856907 0 1 -1
424 1 4.390741143385163 3.1387158289490675 12.786230496113102 0 0 -1
80 2 1.8069387102992236 3.2891842504605973 10.643873801044633 0 1 -1
554 2 3.80526015106426 0.2120252443643969 11.073932930779433 0 -3 1
426 2 4.462726059486914 4.10800625096897 13.03866210227281 0 0 -1
419 2 0.9694331487268 3.6689132225474754 12.679227175517767 1 1 0
446 2 1.6583926940072522 0.30288768793414955 12.672084602175358 1 1 -3
418 1 0.6516246911009619 3.753694458687829 11.77292895608617 1 1 0
425 2 5.303534149961489 2.8682562576967747 12.614173388905986 0 0 -1
555 2 4.8693118930460955 1.0158336949208489 10.338878769207446 0 -3 1
32 2 6.980412631507624 2.4253913600553845 11.089893274605826 0 0 1
31 1 6.862275487459203 2.5104658837814644 12.060507233375931 0 0 1
33 2 7.42082508915673 3.349590469439268 12.261408481400288 0 0 1
152 2 8.078404332953216 1.3507006206081704 12.857553004135765 2 1 0
46 1 7.676747811254686 1.3338972822190829 9.569434355549834 0 1 0
553 1 4.729711155349776 0.32915056433319695 10.976219385415886 0 -3 1
457 1 5.003427454601069 2.7852706563873166 9.336030472588963 -1 1 -1
151 1 8.808004882082935 0.6903152815193008 12.830769497781317 2 1 0
48 2 8.364272799621059 0.686220773993834 9.608719100320783 0 1 0
17 2 5.432724935653035 0.19212166505828612 12.643801275244842 0 2 -1
458 2 5.760283280023861 3.409408916624372 9.242857454230254 -1 1 -1
82 1 2.9284159927769324 6.44466710687837 11.315234712770039 0 -2 1
84 2 3.708023062794252 6.317580791732671 10.71348858135683 0 -2 1
218 2 1.9829888365697872 7.6597156051771815 12.038489176473533 3 0 1
217 1 1.2063196976388955 7.957476112661104 12.528103937251071 3 0 1
83 2 2.835417911622761 5.617842232225489 11.798278483251183 0 -2 1
350 2 4.598225406956069 7.72948154458634 13.400435087096488 2 -1 -1
411 2 2.366476925319368 8.692007445427626 9.303369812018511 2 0 -1
516 2 0.5810177033195919 6.1043053841296535 9.909845796611895 1 0 -1
1 1 8.60408903231284 4.576166162285325 13.050715797172177 2 -2 -2
453 2 7.629722112719817 7.729566694020225 10.580017599740053 5 -2 -3
451 1 7.3745246193723855 7.8209563101695485 11.524662239364483 5 -2 -3
452 2 6.438084545009987 7.932962291251298 11.556913392079975 5 -2 -3
349 1 4.956296965771741 8.562717163370891 12.963995641464333 2 -1 -1
197 2 7.832193334886317 4.858629258629291 9.284488223232902 0 0 -1
198 2 6.449937615382027 5.277295750049598 9.774255282119583 0 0 -1
22 1 4.985091493774221 6.582113654827583 9.321230796555282 1 0 1
2 2 8.092096567949733 5.32382199460703 13.354767317167067 2 -2 -2
196 1 7.07158799862889 4.577137001224371 9.843052221611755 0 0 -1
480 2 8.89812873575977 7.71413645593445 12.901781206686284 0 -4 0
23 2 5.603991033945946 7.258911676918792 9.229095901804463 1 0 1
219 2 1.1266311793512613 8.904319031161046 12.321161849453771 3 0 1
210 2 3.5172638362678685 11.409696243467396 9.501570929439078 1 -1 0
136 1 3.929636950914745 9.624280972495809 10.39436076488801 -1 1 1
440 2 2.0974958706173488 10.694242503852246 12.455214089576167 1 1 0
439 1 1.2578705450684253 10.920582036915311 12.013745139662422 1 1 0
65 2 0.9422289128917551 12.071018098024334 10.708024020560451 0 0 -1
64 1 0.8868800655743623 12.95490202128268 10.277794068731394 0 0 -1
209 2 2.2576498684823223 12.161112866597088 9.170434072259015 1 -1 0
137 2 4.289620201021283 9.288004544357866 11.258156282179865 -1 1 1
138 2 4.56695107999019 9.315257333253431 9.720899502721627 -1 1 1
441 2 0.8242367921986331 11.483026689714043 12.765413573420592 1 1 0
249 2 7.990388896616467 12.226092287995899 11.25360194898673 0 0 -1
436 1 7.792217184578523 10.661425574844085 10.396203889513487 2 2 1
438 2 7.498651626436777 9.850319294969374 10.860380599264975 2 2 1
247 1 7.759315682620045 13.067569393101014 11.66760223160074 0 0 -1
248 2 6.815871299549893 13.062294807519358 11.881944442352003 0 0 -1
437 2 8.713223364565213 10.489267863392072 10.332423080250797 2 2 1
396 2 8.594972444729468 12.87722835614541 12.968856132816166 -1 2 1
276 2 1.4897901743475324 17.409643033550076 10.133008752300661 1 -1 -1
127 1 4.033336654157456 14.951922563396113 9.777745964831272 1 -1 0
66 2 0.8950281875869226 13.725930325893103 10.883145721704922 0 0 -1
128 2 3.6252057277447194 14.091202683361928 9.603150868445477 1 -1 0
107 2 0.5623029501808176 15.020899478818512 12.841015823432961 -2 1 1
261 2 2.6802491090925815 15.6999005239941 12.337711957940542 1 1 2
259 1 3.6257979558186113 15.445833553874243 12.346655811377296 1 1 2
260 2 4.1072394901122165 16.133691069048606 12.835403911585031 1 1 2
106 1 0.8014003893890036 15.030994048332026 11.849599162091533 -2 1 1
129 2 3.938829127206406 15.179028598790973 10.74239310986309 1 -1 0
352 1 8.341768588374352 15.780932123776859 11.52931242310069 -1 4 -1
85 1 6.76592958699338 14.568926963447511 9.441982592349051 1 2 -1
87 2 5.826341830060441 14.652585407930975 9.58862255531155 1 2 -1
307 1 5.507406851481949 13.617467244838645 13.019062505304413 0 -3 0
309 2 4.66881680838494 14.064425439934945 12.837391296305396 0 -3 0
86 2 7.176584897339088 14.959803167080452 10.21085388923893 1 2 -1
353 2 8.04306822516437 15.28385854356713 12.322848177804385 -1 4 -1
354 2 8.533879877137078 16.67858056143599 11.968781019199332 -1 4 -1
503 2 3.810769597298454 2.4420564387366044 14.037846027428914 1 -2 -1
447 2 2.191841872495064 0.8947647498510826 14.099456651237245 1 1 -3
502 1 3.1600443203154005 2.167425238361352 14.778139136650681 1 -2 -1
570 2 1.915901024943187 3.237630983496125 14.531436235629279 2 0 1
504 2 3.7047693073459937 2.0694731041835164 15.535633951706384 1 -2 -1
568 1 1.2755925086476847 3.9917013603624407 14.318297338201987 2 0 1
445 1 1.9033383156660342 0.06694692961085622 13.604120683482952 1 1 -3
112 1 0.30876653145370847 1.0313334743174922 17.59570445845748 -2 2 -1
569 2 0.5977634655765841 3.8470946867907627 15.019729681400024 2 0 1
96 2 7.771702837367072 3.8518309717563515 17.29780968396609 0 -2 -1
42 2 5.375236058522425 0.7649949678921388 16.707758687127857 0 -2 -1
430 1 5.671869334523793 1.9506332410207035 15.511850634455055 1 0 -2
432 2 6.499949749818109 2.415855025551134 15.233128445284786 1 0 -2
94 1 7.976789551256372 3.6346899434670625 16.318985630367344 0 -2 -1
431 2 5.557440228023334 1.2983909317585076 14.817834316859294 1 0 -2
40 1 4.842238011333248 0.4166396521469956 17.46197477412253 0 -2 -1
160 1 8.716109135049294 1.0732829494615403 15.76613449454329 -2 -1 2
161 2 8.469206965886032 1.9820889523022487 16.071188728056903 -2 -1 2
95 2 8.761870372020825 4.144075111605255 16.194321834716735 0 -2 -1
493 1 2.8187194485423874 4.443813265197645 17.773349568155176 -1 -2 0
564 2 2.1000185789264423 5.246358633076282 15.068059764087817 0 1 0
563 2 2.614384435708853 5.416143468821845 16.40606924965253 0 1 0
562 1 2.403237929030187 5.981242655515844 15.633291804939331 0 1 0
567 2 1.274842490986779 7.074373871665196 15.336894661747351 2 2 -1
467 2 3.7927634343277035 5.9910478492045875 14.267237136903544 0 0 -2
566 2 0.9944893629742722 7.97935038948204 14.101921275065578 2 2 -1
565 1 0.7763321827970744 7.864290527658978 15.007187623870927 2 2 -1
466 1 4.461055133362086 5.875909849256436 13.520903313420492 0 0 -2
429 2 8.722222334223513 8.122204435017117 16.677687873697742 -1 1 1
344 2 7.28903102615076 5.431932845227906 15.286846237638851 1 -2 1
343 1 6.963544991845904 5.9689056998279195 14.54792720200286 1 -2 1
345 2 7.090905319780358 6.866996205112396 14.910787147305605 1 -2 1
468 2 5.339716120713705 5.825891758050655 13.919297376784408 0 0 -2
60 2 5.710811278899839 8.696497403478268 15.994607661911898 2 0 -2
150 2 3.880843105821604 9.7645639947564 13.595841632773569 -1 0 -1
501 2 1.6461438412385954 9.017815997527212 15.778203404567762 -1 -1 -1
148 1 3.29834005486719 10.531873434797092 13.81830549415647 -1 0 -1
149 2 2.7125842451945608 10.259767131844564 14.577655205526554 -1 0 -1
158 2 3.7403994957422055 9.316232198010212 17.033511677344013 -1 3 -1
499 1 2.2689217748846757 9.748984175021295 16.09605478230912 -1 -1 -1
500 2 1.7175527250802374 10.371677324862247 16.573254072800538 -1 -1 -1
454 1 1.1619511872130732 12.067761534276718 17.048399796606173 0 2 -1
531 2 4.288296147691731 11.47482159989371 14.792933121491131 1 0 1
308 2 5.204814843971621 12.827703686813978 13.596732078042727 0 -3 0
547 1 8.169787388200309 10.898544682245634 15.677320269581736 3 2 -2
351 2 5.5360175113502414 8.977466113781283 13.666074229406954 2 -1 -1
58 1 6.45919278826107 8.808510147022867 15.442379654397719 2 0 -2
157 1 4.6129692479333855 8.97589812144064 17.356368760660832 -1 3 -1
159 2 4.982998711111034 9.839220163757801 17.682668237225673 -1 3 -1
530 2 5.433702335354513 11.737158571066455 15.922933014745533 1 0 1
59 2 6.967475255855259 9.552456587034639 15.686798926714424 2 0 -2
529 1 4.971650243074552 12.117324873677738 15.13722285505054 1 0 1
262 1 5.896060046343832 11.429263625869545 17.6690519190751 1 -1 1
264 2 6.842252508252424 11.530363902533697 17.47091309948357 1 -1 1
548 2 8.56834259137048 11.242091556514339 14.832175837071679 3 2 -2
549 2 8.832714272127706 11.153415910891612 16.338688276531844 3 2 -2
15 2 2.2259089755815924 13.255088938480295 16.29333307087872 0 0 -1
14 2 3.4547207777780153 13.397974811466712 15.401583560306399 0 0 -1
489 2 3.8624655721569434 16.149565568959964 17.68157545498107 0 -2 1
517 1 0.6657755828870867 15.255990065917903 14.488485751917091 0 1 -1
488 2 3.241827079901145 14.970932593554638 17.023163426494342 0 -2 1
13 1 2.6794850159236137 13.881530034940994 15.70671123752233 0 0 -1
519 2 1.4546817821738645 14.802520399388289 14.896552222809065 0 1 -1
518 2 1.102718629164271 16.12372992465551 14.210056749292656 0 1 -1
133 1 7.948924319160075 16.149658750760846 16.633673570111615 3 2 1
16 1 5.589116887735871 17.352435028805143 13.563162095785524 0 1 -1
212 2 7.250206612159556 15.298697634323611 15.004743648155708 -1 -1 -2
18 2 6.3312854527113505 16.73133761333125 13.592606951104415 0 1 -1
135 2 8.140868758112735 17.02582952448231 16.26466702888651 3 2 1
211 1 7.323799881424853 15.133062695934711 14.039837735436203 -1 -1 -2
395 2 8.672486492334674 13.526139102852914 14.405228280977754 -1 2 1
134 2 8.797545412306023 15.716779730158926 16.612909769249367 3 2 1
213 2 6.592301220909328 14.536597319148948 13.73543263370062 -1 -1 -2
37 1 12.081362834367852 2.9242224932371528 2.6186344963528274 -1 3 -1
38 2 12.496107984112735 3.151276245138485 3.4822128589622183 -1 3 -1
39 2 11.722859482968454 3.762232808074193 2.2373601187148227 -1 3 -1
509 2 10.748705716292765 1.81722867854136 2.9269799597331376 0 3 1
508 1 10.150889595212188 1.0593763907724687 3.207294532954808 0 3 1
296 2 13.032332451629218 2.451188599479536 1.199258543100722 1 1 0
510 2 9.211637535638282 1.2167518045638561 3.121449956507718 0 3 1
333 2 17.37731959306709 4.15253146573676 2.1584008253714124 -2 -2 -1
56 2 14.977901495031675 1.2116066968413262 1.4570993651947894 0 -1 0
55 1 15.67352081524558 1.1546875481685104 2.125684922424813 0 -1 0
327 2 15.833706812540239 2.600512241331497 2.9015650301098046 0 1 0
325 1 16.421656367323415 3.2631047232889356 3.348275111561586 0 1 0
57 2 16.489044418630687 1.1327693947043511 1.5906464733567238 0 -1 0
326 2 15.947947220193052 3.751053146572032 4.021971828097161 0 1 0
245 2 17.619010598765154 2.2623558511465967 4.675924172175482 -1 2 1
295 1 13.54157851762022 1.9390781588675037 0.4931610120852035 1 1 0
301 1 11.048185505256125 5.12785402087594 1.505159828327911 2 -1 0
302 2 10.243651321808427 5.354417377083584 2.0619052168776117 2 -1 0
303 2 11.54696089774542 5.968789709558041 1.6764911633162034 2 -1 0
381 2 11.346816991299852 7.875338835918963 2.656572790552087 1 -1 -2
379 1 12.048824929287479 7.5418645708016605 2.0729632698555442 1 -1 -2
380 2 11.856581998886615 7.968557497930188 1.1743291345600786 1 -1 -2
289 1 10.284065910538393 8.40020077931346 3.9768593624035775 0 0 -1
408 2 10.671231036488445 6.643187951490495 4.40933796833183 -1 -2 3
406 1 11.250058268259284 5.941148365699906 4.3801428016253885 -1 -2 3
407 2 10.653208323376747 5.095037558281472 4.488860687787281 -1 -2 3
575 2 13.49312930620997 7.8794049860818065 3.0082642614638724 -1 0 1
390 2 16.000770588773147 7.442960874661945 2.2984203149412523 0 1 -1
574 1 14.256665893525552 8.106790493680931 3.571884979859696 -1 0 1
388 1 16.688960948253722 7.180654367300268 1.7193004626279051 0 1 -1
332 2 17.44269463921964 5.450087237222495 1.5453124701848815 -2 -2 -1
389 2 16.556309025228625 7.672553823975253 0.900819707593678 0 1 -1
290 2 9.852972024742991 8.959122416079477 3.3289745384124743 0 0 -1
498 2 12.735705685970462 12.489271073958955 2.3972238823242704 -1 0 0
291 2 10.704127079033412 9.036281054858089 4.575923825142599 0 0 -1
463 1 9.563368119531114 11.976080748079559 0.4052184516899481 0 1 0
464 2 10.495659075857493 11.718063596758837 0.6472767979053647 0 1 0
465 2 9.337461853042027 12.599258928404243 1.1395637197399637 0 1 0
421 1 11.829373609882587 11.274482427898748 1.1318614145334147 0 0 4
423 2 11.55025424210701 10.368715667066347 0.9624714090392401 0 0 4
526 1 10.310968252527573 12.959046799774402 4.590698205229071 -2 3 2
321 2 9.044362907588816 10.627400094287069 1.4842077070388306 1 -2 1
319 1 8.963119302730172 9.84934804902822 2.082083327274784 1 -2 1
576 2 14.287205968114828 9.05154751340365 3.8278568566919327 -1 0 1
496 1 13.395781422409682 13.046634537182317 2.8441511785025386 -1 0 0
540 2 17.298444188470636 11.61577626705567 4.156635108549551 2 0 0
497 2 14.280679063252009 12.72961919658452 2.4820417004801847 -1 0 0
461 2 16.156445318941298 11.856113376529054 2.0896519123509014 2 0 1
460 1 15.590060773797292 12.40889266478495 1.4787070162807538 2 0 1
538 1 16.7125522764026 11.10443589515875 3.5525995323833834 2 0 0
462 2 15.618156536079473 12.019608624279693 0.6079828433637475 2 0 1
200 2 15.144432872632224 10.744705463806836 4.720379061762118 1 2 0
539 2 17.149835404653537 10.238064014368044 3.4619465554956554 2 0 0
528 2 10.049675294742471 13.42474067801652 3.76035581003494 -2 3 2
228 2 10.283171346710802 17.110326098813164 2.1543052096192317 -1 1 1
226 1 10.557291517657132 16.404893283105725 1.5436163640081766 -1 1 1
227 2 11.447548428067863 16.119352696370903 1.697592360397742 -1 1 1
45 2 9.687956493696644 14.923650076208682 2.0212365161562076 -1 -3 0
254 2 13.253290929386669 14.630536692279795 2.2111184534701223 1 1 0
253 1 13.177952232608787 15.519156323418228 1.791350799362494 1 1 0
43 1 9.212296692015936 14.148170498686563 2.4161857022664925 -1 -3 0
414 2 15.482206120270323 17.374139653469573 3.3970134400580587 0 0 -1
255 2 13.729748956188256 16.100023222640804 2.3843877022120084 1 1 0
412 1 15.315852227607335 16.432553314908397 3.5259923487954903 0 0 -1
413 2 15.610822663927388 15.925307924281775 2.7119246509900767 0 0 -1
292 1 16.47127704645652 15.149624603204034 1.5905391369697817 1 -1 -1
293 2 16.14820182681678 14.23793609201759 1.4384207905685165 1 -1 -1
282 2 16.826300843908054 16.36640830925895 4.551528193367669 -2 -2 3
279 2 13.638012849982092 13.61275734871357 4.484427678183757 -1 2 1
294 2 16.321172872022544 15.59806995987724 0.7350957216839277 1 -1 -1
168 2 10.93276950210945 2.542409204964415 8.913231949918476 -3 1 -1
100 1 13.268162388788527 3.4064023808675157 5.283425074427769 0 2 0
522 2 12.00733651142499 2.906154351994341 6.766773365314561 0 0 -1
185 2 10.548010688149082 0.14501547026726783 4.82336902867573 -2 -1 1
520 1 11.066399587282197 2.6501354507883996 7.001325585108438 0 0 -1
521 2 10.958771333642245 1.7561688203867976 6.602440173273634 0 0 -1
12 2 10.094090221012097 3.40786718895147 5.59958386700418 -2 0 0
184 1 10.714161726306367 0.1708866516465682 5.805116097866202 -2 -1 1
10 1 9.786686186365369 3.7889255880408292 4.7758301040655216 -2 0 0
78 2 9.047273375925833 4.054375815808313 7.524613032698085 0 1 1
101 2 13.900552173817946 2.576472202868269 5.321055874142676 0 2 0
382 1 15.001599165657712 1.1519664630357656 5.598694551517325 1 1 1
383 2 15.477460144522377 1.103030078717642 6.3934657772879175 1 1 1
338 2 16.55272080690014 2.198580407451063 8.214515135019944 -1 2 0
384 2 14.544899673927274 0.25672259987606116 5.449445148636573 1 1 1
339 2 16.781570914033615 0.5991666457168382 8.178002444204715 -1 2 0
337 1 16.160307104519013 1.305197633351728 8.082997918403255 -1 2 0
102 2 13.742416475547705 4.175525353490305 5.487367803024891 0 2 0
121 1 16.76838217004839 3.901052927626661 7.937526720522906 -2 2 2
123 2 16.82132577328002 4.2777125848212565 7.056691929962834 -2 2 2
221 2 14.600908553290507 1.460269897023933 9.071226776320167 1 1 1
216 2 12.908082933141754 6.074156081592088 5.093003128792738 0 -2 0
318 2 12.154020887080684 5.286495488439606 8.984061213110534 0 0 0
316 1 11.444682254321304 5.840273331349785 8.551947543610265 0 0 0
77 2 9.93917870066236 5.234522898159377 8.095687328163152 0 1 1
317 2 11.798715939622484 6.692057822820804 8.256044471917981 0 0 0
323 2 13.063302101435632 8.323562224904588 7.9593692517424754 -3 0 0
324 2 12.657453974443742 7.810666533485389 6.67792284910821 -3 0 0
322 1 12.273383303474123 8.19323223690961 7.463585517126618 -3 0 0
76 1 9.034956477584966 4.962793092915934 7.8151719615183 0 1 1
62 2 16.942842902059958 5.522453637822446 5.051752757136043 -2 -1 -2
63 2 15.398890114474645 5.731105336803382 5.357296972495236 -2 -1 -2
269 2 15.238552664809221 5.052026365586285 8.014571064605034 -1 2 3
270 2 14.047775754503908 5.62979480961502 7.211447483182756 -1 2 3
215 2 14.027918831146545 7.090006166171056 5.043417083818512 0 -2 0
61 1 16.131550198963524 5.051217740902916 5.286824947460566 -2 -1 -2
214 1 13.756052026216617 6.286039201729901 5.500668808032031 0 -2 0
268 1 14.391370045246465 5.492596532975909 8.120984969068624 -1 2 3
299 2 15.229145465304365 8.060971557841954 8.454450455550727 2 2 -3
181 1 16.252624470260997 8.439250606363235 6.747230117173766 -2 0 0
298 1 14.457377281679026 8.445816715333454 8.922995355947876 2 2 -3
183 2 16.831412650757287 8.122950876946138 6.020130775783743 -2 0 0
122 2 17.408115342313067 4.4659182358373215 8.464433730281073 -2 2 2
375 2 12.573896589873437 10.508349588765986 5.2467625535265885 -1 -1 0
374 2 11.333569452154332 11.407374770764477 4.940334855330701 -1 -1 0
373 1 11.578912376929516 10.53712466624436 5.308403603821283 -1 -1 0
116 2 10.603703957137688 9.13547721196442 7.350431608428792 2 -2 2
115 1 9.825778187425035 9.553775069859459 7.745733670277268 2 -2 2
449 2 12.34285770765564 11.106880807002705 7.109078173381032 1 -1 1
448 1 12.6454214139731 11.936569745443572 7.575459204171107 1 -1 1
117 2 9.556877147199861 10.319760651710068 7.15560605576366 2 -2 2
98 2 17.5060399191286 13.02133871141707 5.664289297722447 -1 1 -1
189 2 15.800931734541766 11.064852154897952 8.428947372778497 1 -2 0
187 1 14.932107805593304 11.202985754840638 8.86601008399179 1 -2 0
199 1 14.533130001860675 10.205671900801898 5.220802814330445 1 2 0
182 2 16.822290394098058 9.103005341599276 7.174383924946005 -2 0 0
450 2 13.493369631768246 11.714820737504427 8.029355446461823 1 -1 1
201 2 15.162504328448584 9.633373390460958 5.730466344777573 1 2 0
472 1 17.50596940820178 10.893321354312507 7.923364406893649 -1 1 1
300 2 14.605528824820627 9.367997931835964 9.030063455728275 2 2 -3
90 2 9.800542571118456 16.590863753822507 8.8131729929803 0 0 0
186 2 11.597936461742378 17.268168225466425 5.961268413794242 -2 -2 1
359 2 11.950181790631943 13.488263195802348 8.138369981157085 -1 0 0
93 2 10.063250512059174 15.955470222327735 5.932113396490258 1 -1 0
92 2 10.407388483447441 14.795816624482269 7.0719220155083145 1 -1 0
527 2 10.520612819970985 13.74729597078985 5.213269069667162 -2 3 2
91 1 9.842664823391504 15.065239393315725 6.266844430601137 1 -1 0
358 1 11.311504159535357 14.184526296208418 8.469791402948497 -1 0 0
536 2 13.129071463110018 15.954315938381441 9.015406758643824 -2 -2 3
280 1 17.601204516593494 16.468154179933627 5.141676793101874 -2 -2 3
278 2 13.525639865821466 13.153791801454783 5.999916506499992 -1 2 1
535 1 13.988585436301237 15.948947527462224 8.570495052234298 -2 -2 3
537 2 14.128598733095941 15.0257813367087 8.394289391212393 -2 -2 3
435 2 13.421699113879976 15.669615540204575 5.652495198575537 -2 0 0
223 1 16.281657956145693 14.228702843362962 6.268094550796406 0 0 -1