LAMMPS data file via write_data, version 15 Apr 2020, timestep = 3298000

576 atoms
2 atom types

4.4139801164132741e-01 1.7478602988339070e+01 xlo xhi
2.3639701164145244e-01 1.7273601988339195e+01 ylo yhi
5.8639801164139271e-01 1.7623602988339911e+01 zlo zhi

Masses

1 16
2 2

Atoms # atomic

123 2 2.5573777550188836e+00 1.5872285317312627e+00 3.4798557468715479e+00 -2 0 2
121 1 1.8726676187031657e+00 2.2632454204138246e+00 3.5476982309578271e+00 -2 0 2
209 2 4.1670787070496278e+00 4.1845032195584357e+00 2.7855671921349261e+00 -3 2 0
122 2 1.2908739021414632e+00 1.9937005903765901e+00 4.2876915428444562e+00 -2 0 2
310 1 4.3012117566973114e+00 8.8280154533893884e-01 3.8239058341565753e+00 -3 1 3
52 1 3.5822869982285992e+00 1.5018890077437894e+00 9.7850010979658131e-01 1 0 2
4 1 6.5209496224242824e-01 1.1410728156610843e+00 1.0935500060154666e+00 1 3 -2
5 2 8.6443779413764477e-01 1.8881131639588076e+00 1.6936562383925180e+00 1 3 -2
210 2 2.6188786979316570e+00 3.8377236177144494e+00 2.9800754314806479e+00 -3 2 0
208 1 3.3152870855505041e+00 4.4907624333821623e+00 3.1772762063963325e+00 -3 2 0
54 2 2.9063024959344053e+00 8.8145278318469356e-01 6.9244332415982635e-01 1 0 2
53 2 3.1702052405517538e+00 2.3299546399452504e+00 5.9664504980396937e-01 1 0 2
17 2 8.4649726112880774e+00 1.4536483800913120e+00 1.1223530133562172e+00 3 0 -4
312 2 4.8554443339537592e+00 1.5303198249738399e+00 3.3194169351276401e+00 -3 1 3
113 2 6.3044145710714039e+00 3.1630344605014771e+00 2.4971269212475380e+00 -2 1 -7
112 1 5.5625305267863192e+00 2.9101043994034184e+00 3.0502331393242290e+00 -2 1 -7
230 2 8.7199394056719886e+00 3.5794043222810163e+00 2.5428661251596560e+00 3 2 3
231 2 8.4840255528623363e+00 3.9455478320368900e+00 4.0036941792764997e+00 3 2 3
229 1 8.1449532857182945e+00 4.1291780508855753e+00 3.1483772133235126e+00 3 2 3
114 2 5.7312869042635883e+00 3.1120073454021564e+00 3.9619579175713580e+00 -2 1 -7
212 2 5.1870135650212266e+00 1.4148959654643578e+00 7.3331629461380432e-01 1 -3 0
16 1 8.9009674007482111e+00 2.2900563594583092e+00 8.8537357642538872e-01 3 0 -4
23 2 7.0605043006809982e+00 3.0325501221426809e-01 1.5971405712020448e+00 1 -5 -2
56 2 1.0604138255597553e+01 1.7675042632336482e+00 1.1726619308858810e+00 -2 -2 2
241 1 1.1151490685461955e+01 5.4024209179792049e-01 4.1071804150369999e+00 -3 8 -2
57 2 1.1599898027371506e+01 2.7154250749954700e+00 1.9414213929586792e+00 -2 -2 2
242 2 1.1104859576531188e+01 9.8557806752635724e-01 3.2893021450039415e+00 -3 8 -2
55 1 1.1472462795419979e+01 1.7995875197015263e+00 1.6521394895556676e+00 -2 -2 2
430 1 1.2096118830997938e+01 4.1808633121051439e+00 2.5894100646574829e+00 -4 -4 3
431 2 1.1572619192046270e+01 4.1610605391831514e+00 3.3883394888798377e+00 -4 -4 3
447 2 1.4752272711409027e+01 1.4428188652419378e+00 2.4942888729770263e+00 -1 3 5
445 1 1.4834370083650837e+01 2.3057185109245539e+00 3.0366582967980240e+00 -1 3 5
446 2 1.4030745612174616e+01 2.3531394576153226e+00 3.5841467711864530e+00 -1 3 5
519 2 1.6041489700125695e+01 1.7097688997016960e+00 4.3183372339408415e+00 2 2 -5
48 2 1.6520937857181018e+01 3.8942706850456270e+00 1.3760737029646868e+00 2 1 0
47 2 1.5063503660785539e+01 3.3397975309738959e+00 1.1315685602597303e+00 2 1 0
46 1 1.5891319723972639e+01 3.6391942711004357e+00 6.8697810624269717e-01 2 1 0
6 2 1.6834752006860548e+01 1.4023974352217485e+00 7.2501645962335359e-01 0 3 -2
360 2 2.9762556754441940e+00 7.6644450922373828e+00 3.3595762121804165e+00 1 2 4
396 2 6.6654795648593224e-01 5.5987418084417051e+00 1.8861594219138140e+00 6 0 1
394 1 1.2236466170646492e+00 5.8108839654221516e+00 1.0765747065528708e+00 6 0 1
358 1 3.8114083304802548e+00 7.1479434002791153e+00 3.2244912210558763e+00 1 2 4
359 2 3.5237090857371953e+00 6.2550455684015596e+00 2.9428595414331578e+00 1 2 4
477 2 4.6704307547788950e+00 7.0113627003151224e+00 4.6786172336167704e+00 0 0 -7
395 2 6.1810256586512935e-01 6.4813547152616486e+00 6.4210709401020127e-01 6 0 1
540 2 4.3310924842480283e+00 8.4660171658677648e+00 1.9873464599525104e+00 8 4 0
318 2 6.0566883600665662e+00 5.4762532952745975e+00 1.0822106539063285e+00 2 0 4
316 1 5.2347085310618180e+00 5.0981800881936099e+00 7.0564377508938292e-01 2 0 4
385 1 7.7115134360592625e+00 6.1255969809700224e+00 1.3046710609213470e+00 1 -3 0
386 2 7.5786266407761564e+00 7.1203336148285361e+00 1.4515514884334082e+00 1 -3 0
387 2 7.9800904289830941e+00 5.7104882874417315e+00 2.1431545242576613e+00 1 -3 0
480 2 8.6959031821268091e+00 8.1381936842730660e+00 4.6244790932156139e+00 0 -3 -2
432 2 1.1567258924404680e+01 4.7742736177665055e+00 2.0286952402414746e+00 -4 -4 3
562 1 1.1388900192871885e+01 7.8653344973363613e+00 3.2263652941450691e+00 -5 -2 4
563 2 1.0634214215423112e+01 7.5034564087900506e+00 3.7007164063815106e+00 -5 -2 4
143 2 1.2143183843254315e+01 6.9153298178588809e+00 2.0058255352939081e+00 0 -1 3
381 2 1.2595454022917572e+01 8.4465882397358261e+00 4.0699729549433803e+00 2 -5 3
142 1 1.2859389531664689e+01 6.8729654204793809e+00 1.3605738471509849e+00 0 -1 3
397 1 1.0664928507337875e+01 5.2945573849550867e+00 6.4534000054436791e-01 2 2 3
564 2 1.1027003833852847e+01 8.6979997916378640e+00 2.8161237334691549e+00 -5 -2 4
398 2 9.7118389695899943e+00 5.4429309199482470e+00 7.3456913963563064e-01 2 2 3
544 1 1.6307046640980378e+01 8.4592753251175008e+00 3.7714824098611306e+00 -1 5 3
29 2 1.4239837310525846e+01 7.9597351629667994e+00 1.2088121940628884e+00 1 1 4
170 2 1.7239452728726690e+01 4.5003170613745009e+00 4.0831315540685944e+00 -1 3 -6
169 1 1.6924658310161398e+01 4.6374773227417529e+00 3.1897603412481987e+00 -1 3 -6
225 2 1.3982647759429158e+01 6.2695198390091225e+00 2.6067772205327593e+00 1 3 -4
171 2 1.6025394055419184e+01 4.9401739356555856e+00 3.2828521083260274e+00 -1 3 -6
223 1 1.4318290332311458e+01 5.5990422639271014e+00 3.2382192292498488e+00 1 3 -4
224 2 1.3790708505995397e+01 4.8272958591962798e+00 3.0324532658874923e+00 1 3 -4
28 1 1.5064092642067203e+01 8.5327242479588339e+00 1.1291434747393063e+00 1 1 4
546 2 1.5831172960812239e+01 8.1852745198584032e+00 2.9467074882827187e+00 -1 5 3
474 2 4.4890715483687744e+00 8.4292686726348598e-01 8.8292136823614626e+00 -2 -4 -3
472 1 3.8464409359725535e+00 1.5382119303025470e+00 8.4658342334340322e+00 -2 -4 -3
483 2 4.3790129872606203e+00 3.0271964219561500e+00 8.3636065474480166e+00 -5 -3 8
303 2 3.3009424386355977e+00 1.3672623488458595e+00 5.3500479108883896e+00 2 -4 5
301 1 2.7341221130458480e+00 1.3426811795685121e+00 6.1098857610335084e+00 2 -4 5
473 2 3.5008177776491736e+00 1.2284670209962145e+00 7.6145001312507068e+00 -2 -4 -3
302 2 2.5800457356083015e+00 2.2999820111017137e+00 6.2216856161715679e+00 2 -4 5
2 2 3.2536022136152085e+00 4.2169125536463676e+00 5.1560493716261373e+00 1 1 0
1 1 3.0842582738224689e+00 3.9996964561081878e+00 6.1012248037878463e+00 1 1 0
482 2 5.8227443153281291e+00 3.2566410434443740e+00 8.8910634151220513e+00 -5 -3 8
481 1 5.0608070612179379e+00 3.7156061179764190e+00 8.4472306956248211e+00 -5 -3 8
130 1 6.4507369537596206e+00 3.3642263075636842e+00 5.8149236168648120e+00 1 4 -8
131 2 5.8560438780452762e+00 3.2534865903780341e+00 6.5790284292039178e+00 1 4 -8
132 2 7.1924879369949100e+00 2.7937127021361401e+00 6.0461137928029940e+00 1 4 -8
499 1 8.5092656025399140e+00 1.6052864533586924e+00 6.4308944654487057e+00 0 -1 -1
500 2 8.1699095834302362e+00 8.7182084367546930e-01 6.9370018734453485e+00 0 -1 -1
573 2 1.1275340881238263e+01 3.7439316188397687e-01 7.1309732401080623e+00 -2 2 -3
356 2 1.0897024893886929e+01 2.7423221596443841e+00 4.9694120624222071e+00 3 0 -5
355 1 1.0416763800934151e+01 3.5951404019132669e+00 4.9921095961368991e+00 3 0 -5
501 2 9.4639118663381030e+00 1.5782374999624846e+00 6.5878002828910276e+00 0 -1 -1
357 2 1.0455522531922396e+01 3.8493490538221735e+00 5.9652975943897975e+00 3 0 -5
571 1 1.1249541731102674e+01 1.3737601896437193e+00 7.0145686145382173e+00 -2 2 -3
572 2 1.1773785477349813e+01 1.7382089184409049e+00 6.3466261382516356e+00 -2 2 -3
182 2 1.1137368649461409e+01 4.0608554474125036e+00 8.1509112415138141e+00 -8 -4 -1
176 2 1.0161762451295710e+01 1.9888224481432992e+00 8.6942681847503422e+00 -2 -5 2
233 2 1.3065600921387661e+01 3.7212931794599085e+00 5.3889100416134372e+00 0 4 2
181 1 1.0343342821787738e+01 4.4408304901465234e+00 7.7905632497182156e+00 -8 -4 -1
506 2 1.3305193905231020e+01 4.3937544080961572e+00 8.6653109202656253e+00 -3 -2 3
232 1 1.3323644562255028e+01 2.7859253949518994e+00 5.3391873290787064e+00 0 4 2
517 1 1.6568892945525178e+01 1.2803693187033920e+00 5.0442028726805725e+00 2 2 -5
65 2 1.4141551376433005e+01 3.5152650936121793e-01 9.0967081545653325e+00 -1 -2 -3
234 2 1.4166185437245240e+01 2.7546043362042312e+00 5.8690673632241550e+00 0 4 2
518 2 1.6392750694875666e+01 1.7990971095201378e+00 5.8357816164685170e+00 2 2 -5
342 2 1.5332854957498460e+01 3.1732435095710279e+00 7.9132803674077303e+00 -2 1 2
340 1 1.5462141748000031e+01 2.9992281237318941e+00 6.9984655300820808e+00 -2 1 2
341 2 1.6239015150263942e+01 3.4666851389432627e+00 6.7452747245313285e+00 -2 1 2
336 2 4.4032870823874752e+00 6.5806867421700925e+00 8.5423124549061900e+00 -1 2 1
3 2 3.5887865714104388e+00 4.6889178510909293e+00 6.6673427511940373e+00 1 1 0
93 2 1.2803624311666280e+00 4.5029560379072029e+00 6.2836548849126830e+00 2 0 -2
334 1 3.9892358132990942e+00 5.8989949671448736e+00 7.9382368238371246e+00 -1 2 1
476 2 4.6397802496038789e+00 6.5895529462690643e+00 6.2181563200852352e+00 0 0 -7
335 2 4.5041575486886574e+00 5.0886558240162012e+00 8.2779301545140065e+00 -1 2 1
72 2 1.0347225752784808e+00 8.2550592095146840e+00 8.6403188120423504e+00 3 2 -4
191 2 4.6690915782998648e+00 8.7356227412520457e+00 5.9834115571133211e+00 -1 -1 -6
362 2 2.3642093969255358e+00 6.5127149263591351e+00 8.9463439922978427e+00 -9 -1 -3
479 2 8.5788295627377238e+00 6.7127550008296657e+00 5.2161787795872661e+00 0 -3 -2
475 1 5.1391867153077770e+00 7.0843195748285011e+00 5.5806215388373266e+00 0 0 -7
219 2 7.0645829493124053e+00 4.9971902012552016e+00 5.7235842681050935e+00 0 -1 -3
218 2 6.5122914505005554e+00 6.3633822158455349e+00 5.8963312284465212e+00 0 -1 -3
217 1 7.3643684793340496e+00 5.8631720055105481e+00 6.0715174780655152e+00 0 -1 -3
441 2 7.7749310091849209e+00 5.8043587480724605e+00 7.8104047024344547e+00 5 0 1
439 1 7.9830109539675895e+00 5.3905737763414034e+00 8.7106340001956521e+00 5 0 1
440 2 8.9125848042380351e+00 5.1473599170307454e+00 8.6227157156310934e+00 5 0 1
118 1 7.6802073300485940e+00 8.7026371346451299e+00 8.0172221843280074e+00 3 -3 0
478 1 9.2347032834047980e+00 7.3992016403290712e+00 4.9183083461225436e+00 0 -3 -2
569 2 9.3956532013207319e+00 8.3024139150490157e+00 8.9689373185624710e+00 -2 -1 -5
14 2 1.2469040467483429e+01 6.3684362100273937e+00 5.8971994262831915e+00 -2 2 3
449 2 1.1052059474092962e+01 7.5424216385414411e+00 7.3183523148091272e+00 0 2 -3
450 2 1.0549322376288554e+01 7.1723034648183930e+00 5.8874861039398363e+00 0 2 -3
448 1 1.1209535322418814e+01 6.9674642001343834e+00 6.5840501720046900e+00 0 2 -3
183 2 1.0661114677667376e+01 5.3431354399234348e+00 7.5778917052159471e+00 -8 -4 -1
568 1 1.0365925868587066e+01 7.9967400012537082e+00 8.9656218203929345e+00 -2 -1 -5
92 2 1.7121368624113799e+01 5.5786151517291378e+00 6.2051888718126316e+00 1 0 -2
71 2 1.6996601565672357e+01 8.3354993519405394e+00 7.6228961502475805e+00 2 2 -4
35 2 1.4645661677769025e+01 7.4091150543855786e+00 8.8598722301414412e+00 -2 -2 -3
15 2 1.3750224384301076e+01 5.9596497539248441e+00 4.8746618518927640e+00 -2 2 3
456 2 1.6335420479477406e+01 7.4791202102330381e+00 5.2879867913570422e+00 0 0 1
455 2 1.5220880179667553e+01 7.1028521168340388e+00 6.1677966584868020e+00 0 0 1
13 1 1.3393730108876110e+01 5.8937111952370067e+00 5.8130179765965151e+00 -2 2 3
84 2 1.4197358475970498e+01 5.5586180118749970e+00 7.2982413267052726e+00 0 -1 3
83 2 1.5419432558143585e+01 5.2841162221570643e+00 8.0761138801613388e+00 0 -1 3
454 1 1.6195623669254587e+01 7.0996548085492188e+00 6.1716343912863021e+00 0 0 1
82 1 1.4481927068865899e+01 5.6487338288279689e+00 8.2083187005087286e+00 0 -1 3
91 1 1.7386641874398308e+01 4.6079455524667008e+00 6.2731040151450674e+00 1 0 -2
188 2 2.3654777872531536e+00 1.8268368148051057e+00 1.1963617153143192e+01 2 8 -1
292 1 4.2991694733711352e+00 4.2312722768323070e+00 1.1321593185576235e+01 0 7 2
11 2 2.5063428619740318e+00 1.5434445820286986e+00 9.5839510353455086e+00 8 0 3
294 2 3.3369032432374612e+00 4.1634854698481929e+00 1.1120454423473648e+01 0 7 2
10 1 1.8419094950388379e+00 1.8654973910544919e+00 1.0207884928461494e+01 8 0 3
412 1 1.6580656365206359e+00 4.4502311365000251e+00 1.0837628993389426e+01 0 1 2
413 2 1.6350349197258840e+00 3.4992641386706591e+00 1.0571331226888026e+01 0 1 2
12 2 1.0102614838887827e+00 1.3545120300807789e+00 1.0056783025610430e+01 8 0 3
187 1 2.4816682128276613e+00 1.8335464918514031e+00 1.2923745261954272e+01 2 8 -1
189 2 1.5429573257579752e+00 1.6820189253215678e+00 1.3250721373515745e+01 2 8 -1
293 2 4.7335463820547137e+00 3.6313027037563170e+00 1.0687302052025450e+01 0 7 2
547 1 5.7921073881834859e+00 6.1960394504085203e-01 1.2116159356753872e+01 -1 5 0
536 2 6.8290081455281175e+00 2.2917877488658598e+00 1.2542783564897645e+01 3 -1 -5
535 1 7.4804448965185815e+00 2.9864749608590739e+00 1.2449034065095200e+01 3 -1 -5
146 2 7.4681383259319558e+00 3.0854902742925376e+00 1.0766765771176747e+01 4 3 3
549 2 5.2062873300392711e+00 4.9945402288494783e-01 1.2923889249491523e+01 -1 5 0
548 2 6.7079566429820154e+00 2.8511680233472669e-01 1.2320382696856804e+01 -1 5 0
537 2 7.0371801704136434e+00 3.7849332935306426e+00 1.2842933861670764e+01 3 -1 -5
177 2 8.6989244694872703e+00 1.9293252344255776e+00 9.4236710706721318e+00 -2 -5 2
145 1 7.4481344597223007e+00 2.8995838956690583e+00 9.7968703456918966e+00 4 3 3
147 2 7.7990914076898790e+00 3.7443824293890660e+00 9.3859413455565477e+00 4 3 3
467 2 9.5038831918838529e+00 2.5948079667324833e+00 1.2516508286040136e+01 3 -1 -1
466 1 1.0393973592405263e+01 2.5174065881137886e+00 1.2034968799448926e+01 3 -1 -1
468 2 1.0178272919814729e+01 2.2450398111623442e+00 1.1127592343988862e+01 3 -1 -1
507 2 1.2536745474412175e+01 4.1464257504081674e+00 1.0052944762998138e+01 -3 -2 3
406 1 1.2899902856975283e+01 1.0525743798689249e+00 9.8554436808381602e+00 2 1 -2
378 2 1.3112842103227536e+01 4.0925129838561958e+00 1.3100779085893908e+01 -4 -3 0
314 2 1.1465417841220880e+01 4.1277311045320140e+00 1.1996207732823988e+01 -1 1 -1
408 2 1.2797092420168600e+01 1.9647893734916635e+00 9.4790717426903353e+00 2 1 -2
87 2 1.0840814534647533e+01 9.7418561721824137e-01 1.2704849013190712e+01 0 3 -1
407 2 1.2115486687492830e+01 5.8675109839152850e-01 9.5523441642938298e+00 2 1 -2
175 1 9.6276712024683899e+00 1.6035003721093335e+00 9.3907136518514385e+00 -2 -5 2
505 1 1.2721636112141308e+01 3.7352685909999774e+00 9.1680728500645703e+00 -3 -2 3
524 2 1.4047346293216609e+01 5.0252264210430742e-01 1.2787516059138683e+01 3 1 -1
350 2 1.6111862168506157e+01 8.1518677424805330e-01 1.1318325031995830e+01 -2 -5 0
390 2 1.5985445233303670e+01 3.2443088851263533e+00 1.2792626380595115e+01 4 -3 0
388 1 1.6877518235727422e+01 3.4669203982548065e+00 1.2982480984262899e+01 4 -3 0
523 1 1.4270486176529378e+01 1.3620774698366673e+00 1.2336737640769403e+01 3 1 -1
459 2 1.5540701058194017e+01 4.1997927697328832e+00 1.0199018702674106e+01 6 4 -3
525 2 1.3651613548953344e+01 1.3589385336296347e+00 1.1617027355278461e+01 3 1 -1
389 2 1.7049065647311714e+01 4.0849093769924254e+00 1.2273890881315060e+01 4 -3 0
349 1 1.6379197620976825e+01 1.1543520531886484e+00 1.0408340650667061e+01 -2 -5 0
457 1 1.5946386378712059e+01 3.6840406911462091e+00 9.4860156668163071e+00 6 4 -3
458 2 1.6207107011753084e+01 2.8059088982900211e+00 9.8836356382079202e+00 6 4 -3
351 2 1.5745285245831642e+01 7.7793041925410755e-01 9.7866127727752037e+00 -2 -5 0
361 1 1.7652497996179184e+00 6.9696928077553553e+00 9.5824229491370847e+00 -9 -1 -3
309 2 1.7147199971068876e+00 5.3323981118948778e+00 1.2432384687144232e+01 4 -4 2
565 1 3.0088661975824027e+00 7.7748016899798360e+00 1.2003330039339676e+01 -2 3 -1
566 2 3.5496153106197177e+00 7.8122039036486646e+00 1.2814935420374656e+01 -2 3 -1
363 2 2.3817124248793466e+00 7.3041139969115889e+00 1.0266656476156861e+01 -9 -1 -3
308 2 2.0478514696678980e+00 6.7294191246097368e+00 1.2864675166783840e+01 4 -4 2
414 2 1.3481352807388622e+00 5.0027305125897472e+00 1.0104745570825452e+01 0 1 2
307 1 1.6227617149382243e+00 5.9487121057308672e+00 1.3218456563491614e+01 4 -4 2
20 2 4.5080288950152152e+00 7.8681864409183886e+00 1.0908237012308435e+01 -1 0 4
567 2 2.4926211253877333e+00 8.6975336901568454e+00 1.1957268695764617e+01 -2 3 -1
461 2 7.6867636671453754e+00 5.9709632849192174e+00 1.0159154757164572e+01 -2 7 0
515 2 5.4795985350733529e+00 4.9598629419023545e+00 1.2484816518456846e+01 1 1 -3
514 1 6.2273901502780387e+00 5.3054187901394654e+00 1.3034429929678870e+01 1 1 -3
516 2 6.5801685431801715e+00 5.8453959200282695e+00 1.2304833754575023e+01 1 1 -3
460 1 7.3397433811418438e+00 6.5495423257093073e+00 1.0904666008287682e+01 -2 7 0
462 2 6.6556568127935964e+00 6.9697353808390821e+00 1.0462700645865166e+01 -2 7 0
19 1 5.0035429050386560e+00 7.8615563691901702e+00 1.0054993056771409e+01 -1 0 4
313 1 1.2151905564654964e+01 4.7115070206329674e+00 1.1695533562875351e+01 -1 1 -1
284 2 9.2812877057346892e+00 6.1568374740200351e+00 1.0954371164390887e+01 2 -5 -1
305 2 1.1404050120586200e+01 8.5861261185607347e+00 1.2287556676834491e+01 1 2 2
285 2 9.8261841931120042e+00 6.5501977118479155e+00 1.2277809227038363e+01 2 -5 -1
283 1 1.0136343010591743e+01 6.4014349503636288e+00 1.1324082309488018e+01 2 -5 -1
315 2 1.1721908412315603e+01 5.5832534223778012e+00 1.1774524660672007e+01 -1 1 -1
184 1 1.2720507851248563e+01 7.6260375347253824e+00 1.1708651812675720e+01 1 0 0
185 2 1.3132168315096150e+01 7.9911965429777911e+00 1.0910168423073797e+01 1 0 0
570 2 1.0304701392322535e+01 7.4435442822483475e+00 9.8066996952542649e+00 -2 -1 -5
289 1 1.6402924887697360e+01 8.5415272693794222e+00 1.1304496947901022e+01 2 -2 -4
186 2 1.3366469222052745e+01 7.8104960071226159e+00 1.2415165707024721e+01 1 0 0
496 1 1.5155347699392156e+01 5.5189181782492307e+00 1.1446057425439999e+01 -1 5 -3
498 2 1.5517361414228947e+01 6.3386884089221267e+00 1.1851708213141187e+01 -1 5 -3
497 2 1.4279310014833671e+01 5.7630960177410850e+00 1.1141036130823146e+01 -1 5 -3
34 1 1.4512132753814964e+01 8.2102633118046064e+00 9.3584847115506893e+00 -2 -2 -3
291 2 1.5798209376048121e+01 8.1680601250668854e+00 1.0576952080836257e+01 2 -2 -4
290 2 1.5729404978538842e+01 8.6795944393843030e+00 1.2010677394837199e+01 2 -2 -4
470 2 1.5934022154613283e+00 5.1631469477994696e-01 1.5547999525758167e+01 -3 1 0
420 2 3.0848476615986318e+00 3.2179327280539467e+00 1.3865966512916399e+01 2 5 2
247 1 2.1534101379123936e+00 3.3945656049151416e+00 1.6677321239153123e+01 -2 4 3
248 2 2.7380438379305838e+00 3.9666088765844072e+00 1.6140756644096999e+01 -2 4 3
418 1 3.4426787858479075e+00 3.9695433616520517e+00 1.4397107413084060e+01 2 5 2
81 2 9.9489500873218417e-01 2.4102250283595343e+00 1.5786051325265632e+01 -1 0 -1
249 2 1.6284663041299314e+00 3.9599612437348619e+00 1.7277362093778741e+01 -2 4 3
195 2 4.2672156565820396e+00 4.9468785078234306e-01 1.5256918210367822e+01 1 2 0
193 1 5.2223836129574996e+00 5.0232259885249386e-01 1.4928371389621569e+01 1 2 0
211 1 6.1264402382740997e+00 1.2786040818733431e+00 1.7480860322015229e+01 1 -3 -1
213 2 6.0845769089220179e+00 6.8799059098380788e-01 1.6727287766816001e+01 1 -3 -1
282 2 8.8132025133024054e+00 1.4186244373199721e+00 1.5074588468750807e+01 -1 1 -4
281 2 7.8796083020726000e+00 2.6661077871077214e+00 1.4687126771710403e+01 -1 1 -4
509 2 5.7634654085651604e+00 2.7858499388183224e+00 1.6017135553598632e+01 2 0 -3
18 2 8.4882192338328295e+00 2.4617791845363435e+00 1.7057239517094452e+01 3 0 -5
508 1 5.6650124556438373e+00 3.7020139406017569e+00 1.5632730899894050e+01 2 0 -3
510 2 4.8106156276351086e+00 3.7389249929721724e+00 1.4972469803225065e+01 2 0 -3
280 1 8.6721585354923079e+00 2.3962418694844576e+00 1.5148025245223067e+01 -1 1 -4
88 1 1.2385498814547280e+01 1.0132722811285109e+00 1.5652003633514193e+01 -1 -3 2
89 2 1.1904228430358250e+01 1.7849865238752365e+00 1.5994504221913530e+01 -1 -3 2
86 2 1.1764473747073938e+01 4.9520783177289596e-01 1.3949244584592025e+01 0 3 -1
33 2 1.0204835572909120e+01 3.3153535474554716e+00 1.5411405133946438e+01 -7 5 6
32 2 1.1660237547140463e+01 3.7198950980608583e+00 1.4757883492596848e+01 -7 5 6
31 1 1.1040406361534536e+01 3.8907938895831840e+00 1.5467842840131455e+01 -7 5 6
376 1 1.3087425528602319e+01 3.4321781753981346e+00 1.3858968242043709e+01 -4 -3 0
152 2 1.4841979582860658e+01 4.7319757686770814e-01 1.6768207528401703e+01 2 0 -1
96 2 1.5334789739259973e+01 4.2285095277167590e+00 1.6253619141098937e+01 -1 3 -4
90 2 1.3373628460917772e+01 1.2148682627593383e+00 1.5670478562316481e+01 -1 -3 2
377 2 1.3261102047559342e+01 2.5603975723529158e+00 1.3437781958252989e+01 -4 -3 0
151 1 1.4920429534285148e+01 8.3835642905926533e-01 1.5899625698028421e+01 2 0 -1
79 1 1.7285031974321143e+01 1.9876798122711932e+00 1.5282404795100582e+01 -2 0 -1
80 2 1.7241283136676394e+01 2.5974308599781750e+00 1.4510489758349793e+01 -2 0 -1
153 2 1.5622141468529394e+01 1.5098437897587320e+00 1.5837713422092428e+01 2 0 -1
95 2 1.4460728954809552e+01 3.9772562743593296e+00 1.5034704987883419e+01 -1 3 -4
539 2 4.1298603860429388e+00 8.0659644910174677e+00 1.7535741501787790e+01 8 4 -1
125 2 2.6384672685779060e+00 6.5048656611244118e+00 1.7103011710037492e+01 2 -4 4
126 2 4.0536819647436184e+00 6.1636912595708235e+00 1.7282240851207195e+01 2 -4 4
419 2 3.2140263434883014e+00 4.8132443287620692e+00 1.3923732037402836e+01 2 5 2
116 2 4.0272035582122827e+00 6.9698016769334794e+00 1.5079685901016029e+01 3 -5 -2
124 1 3.4814939693022380e+00 6.7095149418133531e+00 1.6721454546685187e+01 2 -4 4
115 1 4.4912175697690415e+00 7.1906546572627326e+00 1.4239518927216766e+01 3 -5 -2
534 2 5.0631361555815362e+00 8.6090165863927091e+00 1.4599398778726190e+01 2 4 6
117 2 5.0485606358368882e+00 6.4566938577680597e+00 1.3917263682088128e+01 3 -5 -2
513 2 7.7555751096139165e+00 5.9216145581727773e+00 1.6424509517536222e+01 0 2 -5
511 1 7.7883880804798515e+00 5.6008447858771939e+00 1.5505497176970382e+01 0 2 -5
512 2 7.0674843548613611e+00 5.0391661369529182e+00 1.5255942698016803e+01 0 2 -5
491 2 8.9508459099773283e+00 6.3147227097960092e+00 1.4608497493553759e+01 0 -1 -6
317 2 5.3261821450556273e+00 4.6510492968351231e+00 1.6895966204784006e+01 2 0 3
306 2 1.0551935050319146e+01 8.3683274906700671e+00 1.3689464452981188e+01 1 2 2
144 2 1.2284426514858350e+01 6.8788475178008728e+00 1.7587665659363708e+01 0 -1 2
391 1 1.0585654928311897e+01 8.6140308522151763e+00 1.6506211134844627e+01 1 -7 4
489 2 1.3050966674510216e+01 7.2665059644485224e+00 1.4861268824258104e+01 -5 -1 -2
393 2 1.0995810780955066e+01 7.9334268634816292e+00 1.5990578510553243e+01 1 -7 4
399 2 1.0865800404905670e+01 4.8999180144830561e+00 1.6798447699157801e+01 2 2 2
492 2 1.0531627222584373e+01 6.0944454546788700e+00 1.4464489451931126e+01 0 -1 -6
490 1 9.7619734539971859e+00 6.5959810689132663e+00 1.4095525107075135e+01 0 -1 -6
487 1 1.2576955585553776e+01 6.5830145159879558e+00 1.5337426670762106e+01 -5 -1 -2
392 2 9.6493640411213804e+00 8.7008875641592702e+00 1.6243459392968063e+01 1 -7 4
527 2 1.5920700105045150e+01 5.8452268960401934e+00 1.4714781240034327e+01 -4 -6 -3
139 1 1.4401080728571271e+01 8.2267936961183263e+00 1.3794759949282513e+01 -2 -1 -1
141 2 1.5226894650549486e+01 7.7994691996337719e+00 1.3905364941892536e+01 -2 -1 -1
526 1 1.6579806459394796e+01 6.5191458852095350e+00 1.4432144087532802e+01 -4 -6 -3
555 2 1.6185637635664644e+01 8.1296313092638783e+00 1.7053327700958732e+01 -4 5 7
94 1 1.4827807133577464e+01 4.7018643984939530e+00 1.5554320105389085e+01 -1 3 -4
528 2 1.7309767870107535e+01 6.1797890606785506e+00 1.3879279605892815e+01 -4 -6 -3
553 1 1.7080088981967222e+01 7.9274474610983852e+00 1.6667487361173652e+01 -4 5 7
488 2 1.3303701754493776e+01 5.9529159260798679e+00 1.5483734262500075e+01 -5 -1 -2
554 2 1.6934102384853915e+01 7.5903613395010581e+00 1.5730744024111388e+01 -4 5 7
62 2 2.3061062994056640e+00 1.2915690073071946e+01 2.5039647616536040e+00 2 -3 1
63 2 1.0163902880078699e+00 1.2365873048099216e+01 2.3630407815322156e+00 2 -3 1
502 1 1.9049569941503286e+00 9.0432285567887423e+00 3.5479875104308110e+00 -1 4 3
503 2 2.0180682862835626e+00 1.0011056795462267e+01 3.9032981375590365e+00 -1 4 3
504 2 9.4295512375682589e-01 8.9176247958856862e+00 3.4997106945170096e+00 -1 4 3
325 1 3.9092863155803097e+00 1.1703972469809768e+01 1.7701582773152194e+00 -1 -1 7
327 2 3.5537937563478050e+00 1.1515985604568549e+01 8.9711909583204541e-01 -1 -1 7
326 2 4.0462822808423109e+00 1.0896993162163835e+01 2.2139807755161125e+00 -1 -1 7
538 1 4.4410829141535029e+00 8.8929610102672783e+00 1.0689329633162554e+00 8 4 0
99 2 5.0525031824347799e-01 1.0653488278103824e+01 1.1580675282771891e+00 -2 2 2
157 1 5.3520402261067481e+00 1.0149110677730640e+01 3.5577191764729590e+00 -3 5 -7
159 2 5.6076721135437735e+00 1.1085875731855831e+01 3.5882615614339066e+00 -3 5 -7
204 2 7.6284953335213208e+00 9.7131550151336619e+00 1.8293418567792783e+00 -2 2 0
403 1 8.7497814621731589e+00 1.1567228881751419e+01 1.6818954478555517e+00 2 4 0
404 2 8.9551297700950858e+00 1.2389781426251764e+01 2.1943621191963416e+00 2 4 0
337 1 7.7286992561305325e+00 9.5577488532006818e+00 4.3733833875847568e+00 5 -1 5
338 2 6.8132153367472545e+00 9.5632569917254617e+00 4.0186623579007605e+00 5 -1 5
202 1 7.3033113048482532e+00 8.9735941007793407e+00 1.3178307371217288e+00 -2 2 0
405 2 8.5891722462667168e+00 1.1989624110008798e+01 8.2331969564054264e-01 2 4 0
268 1 6.2250963978085361e+00 1.2716507697952034e+01 3.6267017076170243e+00 8 4 7
203 2 6.3693730202951420e+00 9.2452549001779332e+00 1.1367810092906301e+00 -2 2 0
158 2 4.8482820677423843e+00 1.0075539723625088e+01 4.4070385999347073e+00 -3 5 -7
270 2 6.6456574428160824e+00 1.2419869953879846e+01 4.4215523242794017e+00 8 4 7
78 2 1.1029104384719060e+01 9.5062894228001920e+00 1.0259304448163475e+00 -1 -3 -3
77 2 1.0115935271086927e+01 1.0585157158880811e+01 1.6969447962655804e+00 -1 -3 -3
76 1 1.0986534956975456e+01 1.0115912488904748e+01 1.7600368878998993e+00 -1 -3 -3
556 1 1.2580236589546852e+01 1.2266271537238152e+01 2.3521306383924188e+00 0 0 -2
557 2 1.2071116863191007e+01 1.1456029521881016e+01 2.0513557583682549e+00 0 0 -2
463 1 1.0689275501142228e+01 1.1687323246178710e+01 4.3496480101487824e+00 1 3 2
465 2 1.1311586437153926e+01 1.1062390602223774e+01 3.9697032364756164e+00 1 3 2
558 2 1.1989243111238958e+01 1.2967315307475491e+01 2.2079727128723876e+00 0 0 -2
134 2 9.7529852282505995e+00 1.2932774377850572e+01 3.8745923676595182e+00 4 -5 -1
379 1 1.3176558079429643e+01 8.9999792711698863e+00 4.6464932793485820e+00 2 -5 3
452 2 1.4036114554812682e+01 1.1654875900094700e+01 1.2428579580649630e+00 -1 11 -1
102 2 1.6447882691016702e+01 1.1293266143087612e+01 3.6439121716251623e+00 -2 0 4
100 1 1.6187797727146524e+01 1.1130691550622817e+01 4.5747402339994458e+00 -2 0 4
545 2 1.5942652509968546e+01 9.2585344638435476e+00 4.1555980927315570e+00 -1 5 3
380 2 1.3881197859990499e+01 9.1926287270233047e+00 4.0137717873372027e+00 2 -5 3
451 1 1.4610910273394982e+01 1.1032551497422427e+01 8.4492990317769090e-01 -1 11 -1
30 2 1.4671875982839197e+01 9.4465952338288517e+00 9.4224020994274515e-01 1 1 4
98 2 1.6296192229553746e+01 1.1237811182393797e+01 1.5838279032147913e+00 -3 2 2
101 2 1.5349291491140198e+01 1.1577746869027148e+01 4.6846990963122872e+00 -2 0 4
97 1 1.7190587079775035e+01 1.1089274099287010e+01 1.9466833493159861e+00 -3 2 2
61 1 1.4414837328325953e+00 1.3193546829597272e+01 2.7002190768694083e+00 2 -3 1
45 2 1.3450209560267867e+00 1.5345754767115647e+01 2.7775405972852298e+00 6 -3 5
43 1 1.2637073449861376e+00 1.6223883017151699e+01 3.1567883483992270e+00 6 -3 5
542 2 3.2494652909295230e+00 1.5562703343391771e+01 1.6635560197733799e+00 0 0 5
541 1 4.0813011957583099e+00 1.5553758371525065e+01 2.1944616222949271e+00 0 0 5
423 2 3.8838503005548635e+00 1.4615522917186860e+01 3.5067695958610599e+00 0 4 2
44 2 9.6047228772340965e-01 1.6727920879624207e+01 2.3611968210423617e+00 6 -3 5
421 1 3.8971166204443550e+00 1.4168834698269190e+01 4.4167754193346997e+00 0 4 2
422 2 2.9641323007143985e+00 1.3892267764835264e+01 4.7049697305317268e+00 0 4 2
311 2 4.1098523944243786e+00 1.7225664303097417e+01 3.2132763060822862e+00 -3 0 3
156 2 1.0763894330209602e+00 1.5110388359347027e+01 7.0180722479317348e-01 -3 -4 2
22 1 7.8993762104428091e+00 1.7019687221314562e+01 2.0178560169815878e+00 1 -6 -2
435 2 6.2503355870538373e+00 1.3421485603419205e+01 1.8592129676292679e+00 -3 5 1
543 2 4.7935840703567152e+00 1.5101352529319563e+01 1.6507068462734420e+00 0 0 5
433 1 6.2011650904869091e+00 1.3788980165585535e+01 9.3831538434169670e-01 -3 5 1
7 1 8.1395276162341172e+00 1.5845496471891105e+01 4.4635954460365390e+00 5 2 3
24 2 8.1378840311198868e+00 1.6323487570280044e+01 1.3716147393627340e+00 1 -6 -2
135 2 8.9028675179041805e+00 1.4399370874244305e+01 3.7447247403559447e+00 4 -5 -1
9 2 8.0367187692868711e+00 1.6356767156531241e+01 3.6224919758121583e+00 5 2 3
269 2 5.3691441808058427e+00 1.3068967802004238e+01 3.9565541163556368e+00 8 4 7
295 1 1.1106566900209026e+01 1.4681345588802937e+01 1.6718925664097468e+00 1 -5 1
297 2 1.0311172244057833e+01 1.4457808655867693e+01 2.2149916002115155e+00 1 -5 1
133 1 9.3685377333289672e+00 1.3672179059638507e+01 3.2490219595654124e+00 4 -5 -1
296 2 1.1744098962805193e+01 1.5206804854369388e+01 2.2085621919836029e+00 1 -5 1
257 2 1.3020210874360821e+01 1.5255975658313481e+01 4.0650666175984291e+00 -4 3 3
258 2 1.2469574460556483e+01 1.6653458392875116e+01 3.6691350051315657e+00 -4 3 3
42 2 1.1979960970090760e+01 1.3383965573677481e+01 4.6845782017686073e+00 -3 -2 2