LAMMPS data file via write_data, version 15 Apr 2020, timestep = 39933000

576 atoms
2 atom types

1.1877190918402292e-01 1.7801229090755967e+01 xlo xhi
-8.6229090815852061e-02 1.7596228090756092e+01 ylo yhi
2.6377190918420368e-01 1.7946229090756148e+01 zlo zhi

Masses

1 16
2 2

Atoms # atomic

499 1 2.0465807713768362e+00 1.4645772679291775e+00 3.1980849227071455e+00 -2 1 -2
500 2 1.3033266520161646e+00 1.9318126842398193e+00 2.8248399205068266e+00 -2 1 -2
501 2 2.7119129691372477e+00 1.2705667353227497e+00 2.5242165665396183e+00 -2 1 -2
94 1 3.9981980094423788e+00 5.3057530490041649e-01 1.8082571376719729e+00 -1 0 -7
246 2 2.9231264519085498e-01 3.9927913800938670e+00 1.4540231740915592e+00 -1 -2 -1
185 2 2.7928202781991631e+00 2.7619138806467451e+00 4.3985066773631809e+00 1 3 2
419 2 4.3503216696375793e+00 4.0327198438299154e+00 4.5094142750727872e+00 5 4 6
96 2 4.3701320835308444e+00 2.8716725912558999e-01 2.6696541411506667e+00 -1 0 -7
213 2 4.5221151601545664e+00 1.8472039322245244e+00 4.9144956035790655e-01 1 -5 -4
104 2 1.4749249716888972e+00 -5.6923467887028067e-02 3.9981270771544288e+00 0 -3 4
423 2 8.1232538661618729e+00 5.6804623690045331e-01 3.0501063587163797e+00 -4 2 4
420 2 5.8551427702860419e+00 3.5991164587600020e+00 4.4876366892359636e+00 5 4 6
421 1 7.7317581102547104e+00 6.2309436192204137e-01 3.9320074864408623e+00 -4 2 4
422 2 8.4438267394371582e+00 3.9659422746391365e-01 4.6053737438811693e+00 -4 2 4
34 1 8.5353218037178120e+00 -1.3502355414508907e-02 1.4248905045594127e+00 -2 -4 -3
569 2 6.0903339841002868e+00 2.3353809376952708e-02 4.3075932124038943e+00 -1 -3 -8
418 1 5.1981201055321797e+00 4.2085475970132729e+00 4.0733363292899494e+00 5 4 6
568 1 5.1718352794445428e+00 -3.7906913092448508e-03 4.4932027571130995e+00 -1 -3 -8
551 2 1.1471599404102003e+01 2.6133681645983278e+00 3.8340539417740747e+00 2 0 5
550 1 1.1392876562037946e+01 1.7485504194092116e+00 4.2942332781169590e+00 2 0 5
36 2 9.1682700971620275e+00 5.6294454699644902e-01 1.0265921955253157e+00 -2 -4 -3
132 2 1.0456735961568281e+01 4.2983379150340877e+00 1.5968160332766455e+00 4 6 -6
130 1 1.0219494766754268e+01 4.1877212446635141e+00 6.4720380408336586e-01 4 6 -6
251 2 1.1789812564252852e+01 2.8797744582412033e-01 3.1684752769251054e+00 2 1 2
244 1 1.7332864554587385e+01 3.2814963125517052e+00 1.6632676662789350e+00 -2 -2 -1
245 2 1.7130844175228052e+01 2.7238111149305260e+00 9.0279152722979628e-01 -2 -2 -1
429 2 1.7179204121881266e+01 3.2447319269420283e+00 3.5338464080266978e+00 3 4 -13
427 1 1.7070079719797647e+01 3.1189229158133873e+00 4.4913429575847950e+00 3 4 -13
428 2 1.6651734437267731e+01 2.2312663608876049e+00 4.6235223043108702e+00 3 4 -13
63 2 1.6623950137099026e+01 6.2013581185661126e-01 1.0109218271041862e+00 1 -4 6
330 2 1.5344797248376564e+01 4.2616844026965328e+00 1.0852359279213617e+00 -1 4 7
167 2 1.0143238205414917e+00 6.2720467002404332e+00 7.4439945032099897e-01 -4 4 -5
407 2 2.0334189751723102e+00 7.5861061711757101e+00 3.7073282547604860e+00 0 -1 5
406 1 1.2988804048436422e+00 6.9250583005760129e+00 3.6847528780015950e+00 0 -1 5
408 2 1.3383277766750743e+00 6.4996034073815068e+00 2.8015209505999072e+00 0 -1 5
166 1 1.3744942699994223e+00 5.6326589949120098e+00 1.3638119956915069e+00 -4 4 -5
168 2 2.1766678039389395e+00 5.2583796190463641e+00 9.2730789065236474e-01 -4 4 -5
403 1 5.4617297666879692e+00 8.5297378935012151e+00 1.9727706472082267e+00 3 4 2
405 2 5.7162909722642254e+00 7.5987596542836267e+00 2.0953328612901769e+00 3 4 2
278 2 5.7821188062253048e+00 4.9435618270484758e+00 2.6296148874024747e+00 -1 1 4
279 2 5.4781771340666143e+00 5.4636235911266633e+00 1.2367199916273783e+00 -1 1 4
277 1 6.1905285538462138e+00 5.5100715412889674e+00 1.8876565522402813e+00 -1 1 4
576 2 7.5574314126563715e+00 6.5945375613825998e+00 1.2681819122002780e+00 -5 2 -4
574 1 8.4647366716419743e+00 6.9387854676154097e+00 1.1035228557437895e+00 -5 2 -4
575 2 8.9573427931592295e+00 6.2028994136341753e+00 7.5484895727541579e-01 -5 2 -4
3 2 8.7062144438379878e+00 5.6138176394402777e+00 4.3863644230834016e+00 -2 -4 1
290 2 8.4789633994648597e+00 8.1987448403844994e+00 4.0968347357513561e+00 5 1 -4
289 1 8.9445402677569952e+00 7.4268924966114422e+00 4.4045157366020353e+00 5 1 -4
124 1 1.1302871204030458e+01 4.3765065452997094e+00 3.1069107611131614e+00 4 -7 6
125 2 1.0549192391763260e+01 4.5573981785648678e+00 3.7648595685404183e+00 4 -7 6
126 2 1.2074934507937977e+01 4.9553703110851366e+00 3.3294430396434502e+00 4 -7 6
513 2 9.6043529222832547e+00 7.8275080105783390e+00 1.9498921786515353e+00 4 3 -6
297 2 1.1171116526955625e+01 7.9930044357040977e+00 8.2557245688075231e-01 -2 -1 3
512 2 1.0730454671024725e+01 8.0955470257149145e+00 3.0942107190263717e+00 4 3 -6
149 2 1.2722194903116423e+01 7.1640476313617674e+00 3.6069583107268657e+00 -1 -5 -7
511 1 1.0379635193041926e+01 8.4336161587139600e+00 2.2083860829868875e+00 4 3 -6
148 1 1.2086995298159945e+01 7.6657036015873770e+00 4.2545204784406145e+00 -1 -5 -7
1 1 9.1539929019042159e+00 4.7862431897741997e+00 4.6582520712843456e+00 -2 -4 1
518 2 1.3361480858670230e+01 7.8849000202656283e+00 4.8950289248260115e-01 2 0 -7
52 1 1.3611118324066444e+01 5.7964638387897534e+00 3.2073974210528005e+00 -4 0 -1
116 2 1.7488844459278969e+01 7.7549894512761410e+00 4.0189639059031848e+00 5 -1 1
54 2 1.3939728666035849e+01 5.7643405828350911e+00 2.3104885591801905e+00 -4 0 -1
517 1 1.4261922544020742e+01 7.6055907958010769e+00 7.9897531930347876e-01 2 0 -7
53 2 1.4415892436366345e+01 5.6293826188873242e+00 3.7766577328085225e+00 -4 0 -1
519 2 1.4388735861839017e+01 8.2309958358163762e+00 1.5822745399166289e+00 2 0 -7
328 1 1.4828453993084873e+01 4.3432341296525108e+00 2.9632696072782722e-01 -1 4 7
115 1 1.6624607986184696e+01 7.9496261882051549e+00 4.3942997132071735e+00 5 -1 1
267 2 1.5622066228361302e+01 8.6217261743513678e+00 3.3377763544394550e+00 -3 3 0
457 1 3.4721895777668181e+00 3.8856315052384640e+00 8.9533045677018634e+00 8 3 -4
459 2 2.7673152697728924e+00 3.4162683870466868e+00 8.5036434431509367e+00 8 3 -4
160 1 1.2995246694316691e+00 1.9426886343999911e-01 8.7016474044064758e+00 -4 7 3
186 2 3.5802853913661576e+00 2.7655444003266729e+00 5.8013461856354347e+00 1 3 2
184 1 3.0494389971344127e+00 3.3212491000962774e+00 5.1331697950096933e+00 1 3 2
280 1 1.3747084460011938e+00 2.6420101395298956e+00 7.4462233722509090e+00 -1 0 -7
281 2 1.7432570498696343e+00 2.7862563042253510e+00 6.5756708504913775e+00 -1 0 -7
162 2 1.5161876214281602e+00 1.0964449150860212e+00 8.3297712701760744e+00 -4 7 3
430 1 4.3988697497495473e+00 1.7257600828255162e+00 6.5091727214727300e+00 -5 -6 0
282 2 4.2152970691161545e-01 2.8128246076471384e+00 7.3912268987416923e+00 -1 0 -7
84 2 7.4141530606804835e+00 2.2076086653994138e+00 4.8352719982103647e+00 -3 0 1
83 2 7.7253171428625533e+00 3.6980689675537306e+00 5.1323314684874557e+00 -3 0 1
86 2 5.2748411718631054e+00 3.8893889120430658e+00 8.3082530810244286e+00 -4 4 2
431 2 4.7420718709721541e+00 9.4629518002850399e-01 5.9512114522846922e+00 -5 -6 0
231 2 7.6927705089172340e+00 1.4504781802656170e+00 8.9131010564072977e+00 2 10 3
82 1 7.1010461442532984e+00 2.9337992322070563e+00 5.3819407823148140e+00 -3 0 1
432 2 5.2364996091476996e+00 2.0599353117664325e+00 6.9238142360692247e+00 -5 -6 0
495 2 7.7891093705107348e+00 2.6474661800736419e+00 7.2329135162802558e+00 2 0 1
85 1 6.1104593277680417e+00 3.6577877396831826e+00 7.8441895253630864e+00 -4 4 2
493 1 8.4613896061669553e+00 2.0843929736380393e+00 7.6557865353275920e+00 2 0 1
552 2 1.2221990391592071e+01 1.7436725615231863e+00 4.8320037364186135e+00 2 0 5
494 2 9.0752028705283507e+00 2.7152543983341508e+00 8.1559533633736052e+00 2 0 1
353 2 9.2436261114436586e+00 1.1478478672201651e+00 6.5367055914632273e+00 -3 6 5
352 1 9.4925731392308279e+00 5.0839744210303728e-01 5.8432099582657706e+00 -3 6 5
354 2 1.0210421828979205e+01 9.5843439020447030e-01 5.3727544900032376e+00 -3 6 5
57 2 1.2003695409819311e+01 3.4685849559265201e+00 8.2271862416316424e+00 1 -1 4
55 1 1.2746466463038681e+01 3.5145086309719242e+00 7.5356845291061472e+00 1 -1 4
56 2 1.2942923829567718e+01 2.5280122991908334e+00 7.2881823570941195e+00 1 -1 4
178 1 1.3369202993994044e+01 1.3291088525684098e+00 6.0819246999688703e+00 -1 4 1
174 2 1.6486800072567103e+01 2.1873198535801075e-01 5.9108056494340087e+00 2 -6 1
173 2 1.5514224248130823e+01 6.2695686812309137e-02 4.7178414928602654e+00 2 -6 1
172 1 1.5820210782652079e+01 7.2477549783736861e-01 5.3910936330273147e+00 2 -6 1
98 2 1.5916299085665045e+01 3.9554979208922809e+00 7.8030731039559305e+00 -6 2 4
179 2 1.4329859988008041e+01 1.4552455972690777e+00 5.9113059309285232e+00 -1 4 1
97 1 1.6505431647389788e+01 3.2539079919334775e+00 8.1965926356219736e+00 -6 2 4
180 2 1.3386371056094907e+01 3.7275495427213745e-01 6.1934302680778215e+00 -1 4 1
99 2 1.5908765134361650e+01 2.5226855542602489e+00 8.5116386606251773e+00 -6 2 4
77 2 1.4392184943433806e+01 7.9518571509012953e-02 9.0244371713422513e+00 0 -6 -2
191 2 4.7005692218846368e-01 6.7076509245152351e+00 8.6996186947583851e+00 1 -4 -4
39 2 1.5599328290034735e+00 4.6538899958955362e+00 5.7313567016564573e+00 -4 -11 -3
38 2 1.0828339306053927e+00 6.0546091230428116e+00 4.9845456783452589e+00 -4 -11 -3
450 2 2.7651631608986951e+00 6.3922946840851669e+00 6.4247020297473609e+00 0 3 0
192 2 2.4967910700269125e-01 6.3148368760454217e+00 7.1141872629290122e+00 1 -4 -4
37 1 1.0466832484212283e+00 5.5356985905488543e+00 5.8538795934886361e+00 -4 -11 -3
448 1 3.6150961499433540e+00 6.9318403168271319e+00 6.4807964780861278e+00 0 3 0
449 2 3.7251922000954640e+00 7.3257685191641810e+00 7.3501933436262412e+00 0 3 0
452 2 4.0100289712212795e+00 8.6839032536654983e+00 6.2527705853114419e+00 -7 14 -1
199 1 4.1504361416903368e+00 7.3872181538612169e+00 9.0061151729308389e+00 5 -3 -2
434 2 7.9747171862686574e+00 6.9025693560949986e+00 8.8414433362830511e+00 -7 3 -2
87 2 6.1557762497639095e+00 4.3629449767438837e+00 7.1929824693845399e+00 -4 4 2
363 2 7.6591742083148109e+00 8.3098787264755067e+00 7.3148055893040160e+00 -6 6 -8
318 2 6.0345746421068824e+00 5.6770558188226872e+00 5.4053764457398739e+00 4 1 7
316 1 5.9948142689869686e+00 5.9723695485436039e+00 6.3368922771998974e+00 4 1 7
317 2 5.0846997645545420e+00 6.3647607495664253e+00 6.2914125506003726e+00 4 1 7
362 2 7.2679124688435177e+00 6.8970115887473478e+00 6.8942635536720553e+00 -6 6 -8
361 1 8.0345677581576282e+00 7.4152317705017481e+00 7.2081829324514786e+00 -6 6 -8
291 2 8.9357341843626461e+00 7.5529558247101551e+00 5.3809157767127518e+00 5 1 -4
444 2 1.1511660853400610e+01 8.3128715723862925e+00 8.3088554280323148e+00 -6 -2 -3
522 2 1.1745408314387928e+01 4.7618001259446281e+00 6.3475523462558741e+00 3 3 3
2 2 9.8427743865216950e+00 5.0397880330464284e+00 5.3334449697702402e+00 -2 -4 1
443 2 1.2848518994684204e+01 7.3851434207039794e+00 8.3580991163786837e+00 -6 -2 -3
520 1 1.1256544426233866e+01 5.5674571451141714e+00 6.0636397545274221e+00 3 3 3
150 2 1.1898080826083536e+01 7.1009530474443139e+00 4.9902574969837215e+00 -1 -5 -7
521 2 1.1156957338322600e+01 6.1503914925050438e+00 6.8218775828169109e+00 3 3 3
442 1 1.1853601968381723e+01 7.3906682818609521e+00 8.0978618933989388e+00 -6 -2 -3
335 2 1.6178471068841127e+01 6.1639772969963893e+00 4.7505753095377923e+00 -2 1 1
336 2 1.6310878546334081e+01 4.5928444289194212e+00 4.7681773379961312e+00 -2 1 1
559 1 1.4790946213967743e+01 5.1238149402309237e+00 7.3725422319020852e+00 -2 -10 -1
561 2 1.3884933939478893e+01 4.6515656349153884e+00 7.3873589653330125e+00 -2 -10 -1
543 2 1.5441918095783942e+01 7.7964902263548579e+00 8.7353336171566411e+00 2 2 5
190 1 1.7464518421283451e+01 6.6839050279607584e+00 7.9565026496123945e+00 0 -4 -4
541 1 1.4597601740369138e+01 7.2686923945311133e+00 8.7740314995421755e+00 2 2 5
261 2 1.7027156334716210e+01 8.2846470239319636e+00 7.2851744125433733e+00 -3 0 1
334 1 1.5658059842803862e+01 5.3775581694221977e+00 4.8260585555301576e+00 -2 1 1
117 2 1.6850482462124628e+01 8.5325593781477771e+00 5.1327447827521295e+00 5 -1 1
542 2 1.4803057130558406e+01 6.4867126070171128e+00 8.2202730774948556e+00 2 2 5
560 2 1.4968371677783178e+01 5.3264510114999126e+00 6.4290041889879408e+00 -2 -10 -1
528 2 2.4454683570087612e+00 1.9324002377182339e+00 1.1952243252142541e+01 -5 -6 0
544 1 9.6416412374966509e-01 2.9980196496110878e+00 1.2212223636213047e+01 1 3 2
546 2 5.1430536013559902e-01 3.5082992533032762e+00 1.1435552250897487e+01 1 3 2
526 1 3.2286819775440883e+00 1.6169344482283672e+00 1.1493283199868429e+01 -5 -6 0
527 2 3.6388086021414452e+00 9.9354520456490070e-01 1.2158377577914447e+01 -5 -6 0
545 2 3.3538316387987283e-01 2.2183103408213505e+00 1.2390493859081234e+01 1 3 2
310 1 4.2018980889704602e+00 3.6024166918399088e+00 1.3502452311284591e+01 -2 -2 4
142 1 4.4856306594036841e+00 7.1764433173047981e-02 1.3255453709976585e+01 -4 -3 3
24 2 3.5281703226115462e+00 3.8025951333085567e-01 1.0299500028061166e+01 3 -6 -4
483 2 4.9116075151418599e+00 2.7708957449679241e+00 1.1188192773337995e+01 -7 -4 3
537 2 7.6746479330196298e+00 3.1106410601144403e+00 1.3223937956026800e+01 1 1 -2
122 2 8.3398800470038275e+00 6.7264529283067886e-01 1.0950980209259964e+01 -4 -1 -3
230 2 6.6738235480454140e+00 1.8441439860265016e+00 1.0041198130651795e+01 2 10 3
481 1 5.8055430678466289e+00 2.9471803955565874e+00 1.0923687653055472e+01 -7 -4 3
482 2 5.7860297527109177e+00 3.8780998183727990e+00 1.0624744076295165e+01 -7 -4 3
229 1 7.2300203738160809e+00 1.0900646534027307e+00 9.7390225087234992e+00 2 10 3
536 2 6.7903982041978681e+00 2.3868304314344653e+00 1.2193456574051721e+01 1 1 -2
535 1 7.2067931816256934e+00 2.2511613067305625e+00 1.3071336462965855e+01 1 1 -2
414 2 7.4709481012394665e+00 -1.6593832162381972e-02 1.2425002107116169e+01 -2 4 1
121 1 9.1167253876601162e+00 4.6151107586468398e-01 1.1510749020052254e+01 -4 -1 -3
123 2 9.3588470548490506e+00 1.2787775166809292e+00 1.1959274569120909e+01 -4 -1 -3
553 1 1.2548668576426630e+01 1.6230468028305454e+00 1.0438622614605970e+01 -1 4 6
554 2 1.2701639418634375e+01 1.6946513835196724e+00 1.1393069715565279e+01 -1 4 6
393 2 1.0811425233505808e+01 2.8350171670532633e+00 9.9201152938880313e+00 0 -6 8
555 2 1.2040845247109019e+01 8.2942794619162885e-01 1.0283444515035399e+01 -1 4 6
454 1 1.0212234123940476e+01 3.0412648686693591e+00 1.2520133150461408e+01 -1 0 -3
455 2 1.1137165233791833e+01 2.9282093977651384e+00 1.2794495456804658e+01 -1 0 -3
456 2 9.8351519280196911e+00 3.8711537036290022e+00 1.2967873914870429e+01 -1 0 -3
241 1 1.2424028008947063e+01 8.7270117180791440e-01 1.3331358643893413e+01 0 10 -4
391 1 1.0543366086644102e+01 3.4830576475127351e+00 9.2125617920913214e+00 0 -6 8
302 2 1.7649161106808585e+01 4.2727536641653840e-01 9.7999387976787578e+00 -1 -4 4
301 1 1.7003035506519499e+01 2.2065490612165672e-01 1.0491277849666067e+01 -1 -4 4
194 2 1.6953730806953985e+01 4.7884407099960025e-01 1.2491884167395407e+01 2 4 -3
193 1 1.6874110408446530e+01 8.1375181042757472e-01 1.3433250921624976e+01 2 4 -3
479 2 1.7199852000255433e+01 4.1165348944858025e+00 9.5958372412196073e+00 -1 1 1
78 2 1.4031174252614395e+01 1.2143398581114844e+00 9.8532864093046051e+00 0 -6 -2
76 1 1.4786724033070824e+01 9.2360645373985806e-01 9.2758314821864118e+00 0 -6 -2
303 2 1.6147664123101851e+01 4.1211730426826443e-01 1.0077518946194152e+01 -1 -4 4
314 2 1.6070763292408601e+00 7.1874654843737584e+00 1.0686401701531471e+01 0 3 -1
547 1 1.0125084223533944e+00 7.9651349296112954e+00 1.2067977767355448e+01 0 7 -2
313 1 1.8238332634675194e+00 6.5761597212127745e+00 1.0010147047065724e+01 0 3 -1
315 2 2.6435213085929150e+00 6.8896193851706240e+00 9.5580593027097613e+00 0 3 -1
548 2 1.9209724672823083e+00 7.9578584585924741e+00 1.2364345788386792e+01 0 7 -2
129 2 4.0654397443257970e+00 7.2571273663189491e+00 1.3092247308356439e+01 -3 -2 -1
200 2 4.2689953085802452e+00 8.2547074141905057e+00 9.4899931394240635e+00 5 -3 -2
480 2 6.4506363634498554e-01 5.1807233997257596e+00 9.9771842649353282e+00 0 1 1
458 2 3.0401544966820579e+00 4.4177049997985947e+00 9.6146227066455836e+00 8 3 -4
127 1 3.2731162726701473e+00 7.8538555251111166e+00 1.3349321103018102e+01 -3 -2 -1
60 2 8.6766060367495470e+00 8.2000560562298226e+00 1.0347961950226630e+01 -1 -9 5
274 1 5.1419457831271904e+00 5.9941353122665246e+00 1.3212608308956984e+01 -8 6 -3
201 2 4.8426340304934357e+00 6.8131539390543674e+00 9.5076031642296694e+00 5 -3 -2
516 2 5.6615111505764979e+00 5.8830843103823929e+00 1.1496244523136074e+01 3 2 -1
514 1 5.7831151190705592e+00 5.6735876832345316e+00 1.0576146011661917e+01 3 2 -1
515 2 6.7185418450686880e+00 5.9255520878089438e+00 1.0343944936197857e+01 3 2 -1
433 1 8.0498602058814903e+00 6.6991752335485613e+00 9.8163113738577259e+00 -7 3 -2
435 2 8.8400057589279815e+00 6.1777797881023968e+00 9.9240701845517663e+00 -7 3 -2
276 2 4.6135503861342055e+00 5.1555278379432528e+00 1.3326024959031745e+01 -8 6 -3
16 1 1.0592289190735203e+01 8.5991757629438741e+00 1.2892706087195098e+01 8 6 -4
392 2 1.0535476364941111e+01 4.3539196266350064e+00 9.6594139464296500e+00 0 -6 8
32 2 9.2964003305885115e+00 7.7661922165426098e+00 1.3501166652334524e+01 -7 6 4
472 1 1.0664077850502345e+01 5.8703742200955071e+00 1.0204270895484285e+01 -4 -6 1
473 2 1.1024155080610697e+01 6.1782195332293721e+00 1.1029643440207998e+01 -4 -6 1
18 2 1.1422446429462839e+01 8.0739737765211768e+00 1.2806427885589935e+01 8 6 -4
51 2 1.2264066145587657e+01 5.7999302375282715e+00 1.3179863038906396e+01 7 1 -8
49 1 1.2253879183572140e+01 6.3106402201634202e+00 1.2355553981352667e+01 7 1 -8
50 2 1.3121320862918452e+01 6.7075924402179128e+00 1.2076727029450060e+01 7 1 -8
474 2 1.1025009073716637e+01 6.4776954488964593e+00 9.5237385367006073e+00 -4 -6 1
478 1 1.7600510966438236e+01 4.5919127768309096e+00 1.0355201531614018e+01 -1 1 1
107 2 1.7462942093442305e+01 6.8207549159366696e+00 1.2455205003799728e+01 -4 -3 2
308 2 1.4488867072268201e+01 7.0597460542509358e+00 1.0361914047086804e+01 6 -4 7
106 1 1.6666595555579587e+01 6.2551485556212558e+00 1.2445562530789045e+01 -4 -3 2
108 2 1.6938749036931153e+01 5.4434154852513492e+00 1.2011346554299552e+01 -4 -3 2
307 1 1.4577753309134819e+01 7.2525896617299646e+00 1.1378053678635863e+01 6 -4 7
309 2 1.5327960404951773e+01 6.8310048118649087e+00 1.1839290532427185e+01 6 -4 7
211 1 4.3165074498656235e+00 2.4139833748368207e+00 1.7384336787806070e+01 1 -5 -5
311 2 3.3446337267175044e+00 3.1740525548928051e+00 1.3711808459960375e+01 -2 -2 4
143 2 4.2036036104055805e+00 5.1756340361359476e-01 1.4064650050505474e+01 -4 -3 3
188 2 3.2686679074059279e+00 1.6347939103288383e+00 1.5982097629010923e+01 -1 7 -2
189 2 2.0947074802817571e+00 9.2349134141450118e-01 1.5253676137490473e+01 -1 7 -2
187 1 2.9488372981539581e+00 1.4448571520149562e+00 1.5084035823381358e+01 -1 7 -2
388 1 6.3923102000146714e-01 4.6278889999352946e-01 1.5496505000317237e+01 4 -2 2
338 2 1.7114336153261738e+00 2.9807372345181733e+00 1.5009666304227022e+01 2 -3 7
339 2 9.8069776194299330e-01 3.7739928408131354e+00 1.3947146043859030e+01 2 -3 7
337 1 1.3512005758456329e+00 3.8562757872418993e+00 1.4849393242966094e+01 2 -3 7
285 2 3.9233557332102196e+00 4.3077679396750037e+00 1.7709364265511070e+01 0 -1 0
312 2 4.8269375236515151e+00 2.8488720481984533e+00 1.3612832304526950e+01 -2 -2 4
212 2 4.9969729884944121e+00 2.3287618348875871e+00 1.6696097926142752e+01 1 -5 -5
209 2 6.7174388289674400e+00 4.4787153334765795e-01 1.6581145109539722e+01 -3 3 7
321 2 6.8371137641272641e+00 2.7412727864209390e+00 1.5841321736775015e+01 -7 0 1
319 1 6.3392899171598618e+00 1.9409678902904313e+00 1.5582998615402476e+01 -7 0 1
320 2 6.5308308056643352e+00 1.7834210625016815e+00 1.4649432773585257e+01 -7 0 1
304 1 7.3531902138859451e+00 4.2666206393351080e+00 1.6521961269324567e+01 1 2 -4
306 2 7.8295681660155019e+00 4.2786933697455147e+00 1.7307787001648656e+01 1 2 -4
366 2 1.0068500986267406e+01 2.7082469545102330e+00 1.7825169476352023e+01 5 4 -4
243 2 1.1610873829746998e+01 9.9853266761042336e-01 1.3887583548898535e+01 0 10 -4
242 2 1.3117092955159571e+01 1.3940550104755804e+00 1.3805517662800446e+01 0 10 -4
503 2 9.5409107468431174e+00 3.9523300362673941e-01 1.4792057741337194e+01 0 1 2
437 2 1.1382174795823621e+01 8.9546532274296420e-01 1.7556373270745507e+01 -2 -1 -1
504 2 9.3605480768195228e+00 1.8499696876059271e+00 1.4338953490855511e+01 0 1 2
364 1 1.0077741336156469e+01 1.7572012835419895e+00 1.7521765569305487e+01 5 4 -4
365 2 9.8874430540230236e+00 1.7868319822769692e+00 1.6551667060591924e+01 5 4 -4
502 1 9.8659686665248572e+00 1.3171897649357636e+00 1.4946903480569750e+01 0 1 2
348 2 1.3053627510580082e+01 3.9185270897871414e+00 1.4528100714833396e+01 1 2 -2
436 1 1.2178801027870428e+01 3.4430834116044828e-01 1.7732151947775705e+01 -2 -1 -1
43 1 1.6404394080620733e+01 3.6406304990904217e+00 1.5788820065792756e+01 2 -7 -1
389 2 1.7712680579044374e+01 7.6323197499759532e-01 1.6199508364091223e+01 3 -2 2
62 2 1.5737383386331173e+01 1.3553655620038054e+00 1.7617084808944107e+01 1 -4 5
510 2 1.5085003795216233e+01 2.4197490910384465e+00 1.4058009922799240e+01 -2 0 -1
195 2 1.7509282328348629e+01 3.6959336948171012e-01 1.4014801566004721e+01 2 4 -3
417 2 1.3455990776749038e+01 1.3729256030360775e+00 1.7322681612692747e+01 2 1 -2
508 1 1.4198677936987705e+01 2.4830375624622465e+00 1.4482139643889692e+01 -2 0 -1
509 2 1.4240608120993008e+01 2.2017782111091835e+00 1.5426471286275575e+01 -2 0 -1
415 1 1.4260672497059700e+01 1.8795872231936472e+00 1.7074918354977672e+01 2 1 -2
416 2 1.4230011124961843e+01 2.8207810993612581e+00 1.7404554591524427e+01 2 1 -2
329 2 1.5463615279808911e+01 4.2121883976276138e+00 1.7269427545425987e+01 -1 4 6
44 2 1.5911231450114101e+01 4.3261765301973467e+00 1.5259950852434791e+01 2 -7 -1
45 2 1.7291518872079003e+01 3.6093901807215167e+00 1.5419122996282997e+01 2 -7 -1
61 1 1.6661470354231867e+01 1.2745947149836434e+00 1.7939007859563088e+01 1 -4 5
151 1 6.6452039689082865e-01 7.4160477441657013e+00 1.7201265170292469e+01 6 0 -2
283 1 3.8550784553022774e+00 5.2860781457557069e+00 1.7791328208260090e+01 0 -1 0
128 2 3.6869715988763523e+00 8.6703100365044428e+00 1.3655073710977067e+01 -3 -2 -1
257 2 1.9837498409516521e+00 5.6973621032326838e+00 1.5239338994106573e+01 -2 4 1
258 2 2.7047759773164035e+00 7.0556896695801958e+00 1.4675219026822528e+01 -2 4 1
153 2 1.1857405629411217e+00 7.1859475799662356e+00 1.6414171315337256e+01 6 0 -2
256 1 2.5029753589503563e+00 6.4768348287620130e+00 1.5527340969141227e+01 -2 4 1
284 2 3.4218181061608108e+00 5.6548832033955234e+00 1.6957041820653693e+01 0 -1 0
498 2 8.5928538852237146e+00 5.8225097350559514e+00 1.3854425586775994e+01 -1 1 -4
496 1 8.6247143402461681e+00 4.8377523960550093e+00 1.3795774197211324e+01 -1 1 -4
31 1 8.3725755096196082e+00 7.4537195343835139e+00 1.3693510367999632e+01 -7 6 4
33 2 7.7293026275284475e+00 8.1697235373841188e+00 1.3744220609934603e+01 -7 6 4
497 2 8.5322904613565225e+00 4.5804595473280187e+00 1.4707034413462434e+01 -1 1 -4
305 2 6.8483169514780320e+00 5.0819638862113603e+00 1.6473825022462581e+01 1 2 -4
467 2 5.9499367821973381e+00 7.5747076790142955e+00 1.6106181419206724e+01 1 -4 -2
275 2 5.4418575066850039e+00 6.2968690157046048e+00 1.4068021351004917e+01 -8 6 -3
466 1 6.3951107851976117e+00 6.8134275721867121e+00 1.5721782533159676e+01 1 -4 -2
468 2 7.2091806346252758e+00 7.0639073387323865e+00 1.5253142141911015e+01 1 -4 -2
323 2 8.5402872254518307e+00 8.6387587654779043e+00 1.7896489546932322e+01 1 7 -4
411 2 1.3336250497633033e+01 5.1569711591771972e+00 1.7475647151340006e+01 0 4 -2
295 1 1.1578420325078953e+01 7.8431775254814902e+00 1.7597311386573967e+01 -2 -1 2
131 2 1.1060953854571864e+01 4.4371226561805894e+00 1.7873356986551304e+01 4 6 -7
346 1 1.2481445397292465e+01 4.6915249408552153e+00 1.4495119041106193e+01 1 2 -2
347 2 1.2240144590894934e+01 4.8142390823351047e+00 1.5383082344986894e+01 1 2 -2
410 2 1.2156262597646009e+01 6.2253756764981638e+00 1.7344900248057765e+01 0 4 -2
409 1 1.2395674713066008e+01 5.2871943784111970e+00 1.7216894180708604e+01 0 4 -2
296 2 1.1447683715468479e+01 8.6950108780943278e+00 1.7100915777822774e+01 -2 -1 2
425 2 1.5564193824136309e+01 5.9586284893401800e+00 1.3808933686161565e+01 -3 -3 3
140 2 1.5651215101406766e+01 6.9696286037294328e+00 1.5803994781056266e+01 -6 0 1
424 1 1.5101991255196754e+01 5.5752747262571178e+00 1.4600467490979518e+01 -3 -3 3
152 2 1.7415754534969388e+01 7.4160651906008157e+00 1.6839865550263525e+01 5 0 -2
139 1 1.5916045606689869e+01 7.7446424132236054e+00 1.6362095035339031e+01 -6 0 1
141 2 1.5241188665821603e+01 7.8815009165367771e+00 1.7043831527361004e+01 -6 0 1
426 2 1.4177286094174661e+01 5.6672549805803305e+00 1.4380321458073720e+01 -3 -3 3
218 2 2.0178977311524511e+00 1.0683385702627653e+01 4.0803267689956559e+00 0 1 -6
264 2 2.2352227423819020e+00 9.5172615648681447e+00 2.5304981629787369e+00 -8 5 2
220 1 1.3133868087461960e+00 9.7058246817653764e+00 9.8096757809586721e-01 3 3 2
262 1 2.6381409718655493e+00 9.2544987917904411e+00 3.3977440000332026e+00 -8 5 2
219 2 2.5224925890380088e+00 1.2108034572153510e+01 3.8941030046162641e+00 0 1 -6
217 1 1.8200975432158721e+00 1.1600873079433971e+01 4.3605910229669496e+00 0 1 -6
177 2 1.5569377467124040e-01 1.2322761770034012e+01 4.2812584213755143e+00 -2 -4 -4
263 2 3.6158660820298514e+00 9.3588932039398411e+00 3.2579860564565508e+00 -8 5 2
221 2 1.0944181277506537e+00 9.0034613243468957e+00 3.6733180188912934e-01 3 3 2
222 2 4.2361101328823297e-01 9.9989305654286618e+00 1.3180508387134924e+00 3 3 2
404 2 6.1537220730140927e+00 9.0521123713262064e+00 2.4427275514480331e+00 3 4 2
345 2 8.0417666117052882e+00 1.0104729583553681e+01 2.9766431517315439e+00 -1 -1 1
343 1 7.2124969401771217e+00 9.8701908326124936e+00 3.4575595930827050e+00 -1 -1 1
534 2 8.4105898523764875e+00 1.1612056131596674e+01 3.5026176305295509e-01 2 3 6
344 2 6.8526278476077955e+00 1.0715010745837194e+01 3.8072682501454249e+00 -1 -1 1
113 2 6.9654072489103696e+00 1.3078815975649173e+01 1.4266117591745078e+00 -1 2 -4
164 2 5.8095930343748030e+00 8.9672434949396163e+00 3.7039901781112583e-01 10 -3 -3
557 2 5.0587467917469722e+00 1.2123274466975420e+01 4.3820171233272411e+00 -3 -1 -3
523 1 9.1920683282717395e+00 1.0743272329964212e+01 1.9454704961280107e+00 3 5 -3
525 2 9.6596011703558720e+00 1.1476868996813936e+01 2.4061500412453256e+00 3 5 -3
524 2 9.8400843745810480e+00 9.9755047581954432e+00 1.8988126547740927e+00 3 5 -3
170 2 1.2520308359493495e+01 1.2078475567115010e+01 2.3593079196340883e+00 2 5 -9
169 1 1.2706180977021528e+01 1.2428349043478436e+01 3.2836325779116526e+00 2 5 -9
171 2 1.2929030046782822e+01 1.1719439309644882e+01 3.8620343860105191e+00 2 5 -9
21 2 1.0994347719188021e+01 1.2591016886176497e+01 3.9504601099363104e+00 2 -1 1
286 1 1.2260616983644926e+01 1.1831042166275090e+01 7.4082602554133903e-01 2 -1 -1
19 1 1.0084952278175514e+01 1.2426736145645128e+01 4.1844702303952808e+00 2 -1 1
287 2 1.3143845988720729e+01 1.1661499373963839e+01 4.6082258499326589e-01 2 -1 -1
25 1 1.3179460334234237e+01 1.0028508192442258e+01 4.6217765880688422e+00 -2 -4 0
93 2 1.5521455744008216e+01 1.1558923324305230e+01 5.2041212295151684e-01 5 -7 1
135 2 1.6743012756643278e+01 1.1503027629846159e+01 2.6084895271032615e+00 2 -2 -5
133 1 1.6764549684473074e+01 1.0972499223132719e+01 1.8098535010946426e+00 2 -2 -5
134 2 1.5966064387277196e+01 1.0310794186662541e+01 2.0388403248586688e+00 2 -2 -5
175 1 1.6912601760575946e+01 1.2534336814113843e+01 4.0224127873765081e+00 -3 -4 -4
266 2 1.4333413742766277e+01 9.3934557888381143e+00 3.5397499725485306e+00 -3 3 0
265 1 1.4929661192449766e+01 9.1436843696152064e+00 2.8143779855275595e+00 -3 3 0
67 1 3.9709191542082061e+00 1.3278940907518090e+01 3.4577537655973702e+00 -5 -3 -1
95 2 3.8140093215496296e+00 1.7388994081026691e+01 1.3052602699256799e+00 -1 -1 -7
233 2 2.9183578971888746e+00 1.3669205058297138e+01 2.1653741031602705e+00 4 2 2
232 1 2.2487594092395109e+00 1.3836000261182244e+01 1.3868697056741088e+00 4 2 2
234 2 1.5463932218767158e+00 1.4167181133180080e+01 2.0197939624099908e+00 4 2 2
273 2 6.4520859161943955e-01 1.5322614184162669e+01 3.6375230230711595e+00 8 -3 2
103 1 1.4014918628720230e+00 1.6698747410729815e+01 4.3475378368734043e+00 0 -4 4
271 1 3.6454816086097885e-01 1.4631389862061100e+01 2.9991891711670724e+00 8 -3 2
68 2 3.8695784484402589e+00 1.4169238376574556e+01 3.9823015431876705e+00 -5 -3 -1
203 2 2.7968026034533744e+00 1.5356690727321574e+01 6.3747042858739644e-01 1 4 0
398 2 2.8217819027154278e+00 1.6047060725938636e+01 4.5883510596893871e+00 1 -1 2
69 2 4.8403135143582032e+00 1.3465168130818803e+01 2.9501850015922613e+00 -5 -3 -1
396 2 5.6613415064148525e+00 1.4908510735392431e+01 4.8656457197490083e-01 9 1 0
112 1 6.4141417168331758e+00 1.3681587592739588e+01 2.0231241456334996e+00 -1 2 -4
114 2 7.0398034717237774e+00 1.4006988622816692e+01 2.7398591680995308e+00 -1 2 -4
205 1 8.2649517302375717e+00 1.4612488434611929e+01 3.8332879782454583e+00 -3 1 -1
207 2 8.8517492887640756e+00 1.3876224051769883e+01 4.1745606185414044e+00 -3 1 -1
206 2 8.8204794683843666e+00 1.5147498321748634e+01 3.2562961567434154e+00 -3 1 -1
137 2 1.1118699103099663e+01 1.3458465345108475e+01 5.9381083980566163e-01 7 -7 -2
35 2 9.0671456014070024e+00 1.6861766124765634e+01 1.7594327942146057e+00 -2 -5 -3
360 2 1.0294503690585472e+01 1.5163535984756743e+01 1.4840100164831374e+00 0 0 4
358 1 1.0035158689044744e+01 1.5860677562849222e+01 2.1682166864678347e+00 0 0 4
359 2 1.0864188234090488e+01 1.6296010554792002e+01 2.4570713974263159e+00 0 0 4
250 1 1.2254596097374689e+01 1.7193775916809663e+01 2.6772736079721744e+00 2 0 2
252 2 1.2249243515879524e+01 1.7590572581513701e+01 1.7437581106373623e+00 2 0 2
564 2 1.3552480314801050e+01 1.3788544862935096e+01 4.1958821781914910e+00 -8 -6 -1
272 2 1.7444270140250755e+01 1.3981968453249456e+01 3.4422615023430621e+00 7 -3 2
224 2 1.3935795723711918e+01 1.7172114530108100e+01 3.3691364309427958e+00 2 -2 1