LAMMPS data file via write_data, version 3 Mar 2020, timestep = 6400000

2016 atoms
2 atom types

0.0000000000000000e+00 1.7912194800229443e+01 xlo xhi
-9.7867777954325064e-01 4.5974837756465021e+01 ylo yhi
0.0000000000000000e+00 1.9048860546582137e+01 zlo zhi
4.4850111239969903e-02 -6.6466707408089292e+00 -2.3292041748263159e-02 xy xz yz

Masses

1 16
2 2

Atoms # atomic

245 2 -1.2513905665614016e+00 4.4610134541349451e+00 8.9075390444442348e+00 -2 0 -3
48 2 1.2568430355786242e+01 8.1274562821932039e-01 2.9035752132124966e+00 -4 0 -1
802 1 8.7065544266676405e+00 4.1169117170723064e+00 1.3606162012729208e+00 -2 0 -2
872 2 9.4471426193120767e-01 3.0487736571474633e-01 1.6459564768387175e+01 -2 0 -2
1058 2 6.4463497643588443e+00 6.1078258121931306e+00 1.2851796726087478e+01 -1 0 -1
766 1 6.7622872205122313e+00 1.6803817344114500e+00 1.5314124739504235e+01 -4 0 -2
465 2 1.2733471254940968e+01 4.7021450827981468e+00 3.0101058093581812e+00 0 0 -1
539 2 -7.9268296563768426e-01 1.0553394594232737e+01 2.3301665699589655e+00 -4 0 -3
299 2 6.3699031957071783e-01 1.0378356127685397e+01 4.2561107574351666e+00 -1 0 -1
351 2 6.6657674317613189e+00 9.9651865313794286e+00 3.9681046403041949e+00 3 0 4
841 1 -2.2344506619878919e+00 1.7835227993209766e+00 8.1498640356826844e+00 -5 0 -5
787 1 4.5335149108661197e+00 1.2241278479393887e+00 1.5655716150215755e+00 -2 0 0
595 1 1.4149548182951877e+01 6.7137476029999599e+00 4.6090124802992216e+00 2 0 -3
39 2 3.6605974259133065e+00 1.0560139247483642e+00 1.4124113674492964e+01 -4 0 -3
951 2 4.7610989878524785e+00 8.2137734951395434e+00 1.5945917777174531e+01 -1 0 2
653 2 1.5988033054969849e+01 2.5955436027492818e-01 6.8822849415628873e-01 -2 0 0
658 1 2.4903226402441354e+00 6.2623336929941544e+00 9.8789213495501720e+00 -1 0 -2
762 2 1.0495901894620809e+01 4.0504246212166661e-01 9.5038740801167858e+00 -3 0 1
858 2 2.2411888669056594e+00 3.5784348935758059e-01 8.3292326982145308e+00 -1 0 -3
274 1 3.4900265436933195e+00 1.0337034433662973e+01 6.0282352567151323e+00 3 0 0
308 2 9.1007991697456720e+00 9.9965315883557011e+00 4.4276195077805074e+00 0 0 1
928 1 1.1370944791759523e+01 6.4680980652640576e+00 1.2157116273386203e+01 0 0 -1
520 1 7.4654277494776675e+00 1.1447751377629789e-01 1.5245050595649923e+00 -5 0 -1
671 2 7.9667707936510697e+00 4.9726736705236672e+00 2.7873628418677172e+00 -4 0 -1
191 2 2.3090894854484514e+00 7.3064175617430553e+00 1.8018910369394309e+01 -3 0 -5
442 1 1.3212155794789849e+01 2.4189579824699008e+00 9.2219197656333023e+00 3 0 2
47 2 1.1684383371383339e+01 1.2309533867128541e-01 3.8994905889078075e+00 -4 0 -1
680 2 5.2905743162931449e+00 2.5509723378645348e+00 2.3865964150919607e+00 -3 0 -3
478 1 1.3690895034376327e+01 8.1434349894469591e+00 6.7117035170490693e+00 -2 0 -5
977 2 1.0386420971656865e+01 3.3865474962466848e+00 1.3032601859486952e+01 -3 0 0
1075 1 1.4437521862319034e+01 4.2322906561883435e+00 6.0190206738200622e+00 -1 0 -1
745 1 7.8374269315470801e+00 1.4684199167652703e+00 3.7397634353775042e+00 -3 0 0
921 2 1.2320144625523330e+01 5.0575100445158783e-01 1.5250690762627114e+01 0 0 -2
629 2 2.2784375559232757e+00 4.2800486086709331e+00 1.5536577078697503e+01 -3 0 1
211 1 5.5286854369211662e+00 7.9661283437326471e+00 6.3386619873044250e+00 -4 0 -1
1005 2 -4.8038220790756041e+00 9.8801586403783421e+00 1.8366669643983101e+01 -3 0 -2
10 1 8.2152903092087239e+00 3.6055994775942226e+00 6.1554138431565484e+00 0 0 1
119 2 7.1482534358162013e+00 7.7058479844602381e+00 9.1209132331282472e+00 -2 0 -2
468 2 4.5915200357254475e+00 2.1923930795079247e+00 9.1907159288777276e+00 -3 0 2
667 1 3.5099296382702834e+00 2.3311813566944206e-01 3.7207316095517404e+00 -3 0 -2
1914 2 4.3725219663512611e+00 3.5085779390176306e+00 1.0734852896261854e+01 -3 0 1
583 1 1.0244404026446722e+01 -5.4455347317714531e-01 4.7441590373122375e+00 -5 0 -3
239 2 9.4911063543976795e+00 1.0974443488368983e+00 1.3329679871698470e+01 0 0 0
502 1 6.4520825111785438e+00 -1.9334591507044274e-01 1.0682936545954401e+01 0 0 -1
920 2 -4.6695157908585969e+00 1.7246490008839985e+00 1.5468687098748809e+01 1 0 -2
419 2 1.1636347540367057e+01 8.3858304864691711e+00 1.7585205799207817e+01 -3 0 -1
177 2 -1.2305170869112985e+00 6.3513499118548564e+00 1.5361663179561887e+01 -5 0 1
175 1 -9.5156893886996041e-01 5.4956081271457995e+00 1.5710944422555999e+01 -5 0 1
923 2 1.0923054267074750e+01 5.2712286777786099e+00 1.5053769283997624e+01 -4 0 -4
949 1 4.8677238919748413e+00 8.9863519867987627e+00 1.5325467001423011e+01 -1 0 2
775 1 -1.5416444669447573e+00 5.6321538906518698e-01 1.8062962236701470e+01 -1 0 1
229 1 1.0407177821843860e+01 2.3330354892725271e+00 2.7952798742616971e+00 0 0 -2
437 2 1.3111022411608397e+01 9.0374637156627191e+00 1.1678136508676454e+01 -3 0 -1
579 2 9.8988577966956015e+00 2.4241555094761029e+00 1.8699116697215548e+01 0 0 0
613 1 1.2998106629258023e+01 1.4059649063646216e+00 1.0288377826662554e+00 -2 0 0
585 2 9.4074190263198183e+00 -8.8494085148528834e-01 4.3333390165814851e+00 -5 0 -3
307 1 9.9925524513999626e+00 1.0346967477960291e+01 4.3317180257433989e+00 0 0 1
242 2 1.0421976498072798e+01 5.9092107699494214e+00 1.0913961966196764e+01 1 0 0
689 2 1.0745702413469388e+01 5.0707041087235902e+00 1.8586290109628141e+01 -2 0 -1
925 1 -2.2683655684135502e+00 -4.9748995950584085e-01 1.3932592793670416e+01 2 0 2
206 2 -2.4761745847725551e+00 2.5749031053299873e+00 1.5431562880716504e+01 3 0 -1
799 1 6.5019189883353263e+00 1.1918938249712419e-01 1.7652199921365494e+01 0 0 -4
403 1 4.0635652468270305e+00 -6.8736952185843858e-01 7.8794250013543436e+00 3 0 1
276 2 2.5699438308524787e+00 1.0211983912441697e+01 5.8132869495406290e+00 3 0 0
885 2 2.6908874053785148e-01 3.9486823351169997e+00 1.3207090926814026e+01 1 0 -1
846 2 1.0148416705725477e+01 1.1990953626561565e+00 7.1192506090831014e+00 1 0 1
51 2 1.4036100026663814e+01 1.0595393139621972e+01 9.6302275470639422e+00 -2 0 1
117 2 1.3706390111141848e+00 8.5149917100347032e+00 1.6747526763989551e+01 -4 0 -5
393 2 2.7716023758498327e+00 3.0006147698052126e+00 4.9189129627122536e+00 0 0 0
1098 2 6.3540663007022591e+00 3.5850720730713013e+00 5.9630605166959425e+00 1 0 0
591 2 4.1228118454362273e+00 7.9544430966394160e+00 1.3787194584909114e+01 -5 0 -2
231 2 1.1296927932874185e+01 2.7243245444561186e+00 2.9851923177943136e+00 0 0 -2
37 1 3.8409320195683794e+00 1.6187438954661153e+00 1.3326642305086219e+01 -4 0 -3
640 1 6.5733742473064112e+00 8.6494329771556444e+00 8.7170762820674097e-01 4 0 0
549 2 1.2476337329307762e+01 1.9872580572430283e+00 1.2928748441439405e+01 -4 0 -4
804 2 9.2007518744238492e+00 3.6280378414314107e+00 2.0136884407500348e+00 -2 0 -2
223 1 1.1367637168077707e+00 2.1811812858899629e+00 1.8850343379504686e+01 -2 0 -2
109 1 8.7422184116542656e-01 5.6672171035310370e+00 1.7869675174113823e+01 2 0 -4
503 2 6.6556520402615256e+00 6.6172244292906801e-01 1.1207460376309713e+01 0 0 0
359 2 4.6644375097705870e+00 4.4030601873425113e+00 1.8802971180802398e+01 1 0 -1
497 2 1.2015638622502925e+01 6.8952279945676356e+00 2.4041158904522817e+00 0 0 1
88 1 6.3990062572241317e+00 1.7673752251553903e+00 8.8015324899388165e+00 -2 0 -1
746 2 8.7405779336254881e+00 1.8793721050729726e+00 3.5979322430553351e+00 -3 0 0
805 1 9.8563279503853725e+00 6.9014704070836990e+00 5.0930975215583958e+00 -3 0 1
184 1 1.0446526952581186e+01 9.0785216947383187e+00 1.0109136537808299e+01 -5 0 -7
600 2 3.7748613250556295e+00 7.7913251371102401e+00 2.5583652704608433e+00 -4 0 1
760 1 1.0485375072847171e+01 9.3862483114058870e-02 8.6090136794089389e+00 -3 0 1
788 2 4.7258437795887858e+00 7.6323657840171966e-01 7.1538646526193728e-01 -2 0 0
876 2 -5.9447762941306381e-01 5.2662079529725920e+00 1.1907127437681460e+01 -2 0 1
127 1 7.6593419242146155e+00 8.9439910095114907e+00 1.0162714497419692e+01 -3 0 -1
457 1 7.0089878398976717e+00 4.1933888134849107e-01 6.2316871754935601e+00 -2 0 -2
828 2 2.9598204682248830e+00 3.8554732631954023e+00 1.1939772411987428e+00 1 0 1
558 2 5.0479137025741325e+00 4.6345503004453041e+00 2.7514530419683647e-01 -2 0 0
123 2 9.4147533405286374e+00 8.9958824627836371e+00 7.3460868226110385e+00 -3 0 -1
571 1 6.7097804920420012e-01 1.8268455947136966e+00 1.1065578651081939e+01 2 0 4
598 1 3.8861785499975543e+00 6.7988681449198287e+00 2.5219645775860595e+00 -4 0 1
527 2 3.6611772475889026e+00 8.7304236088699216e-01 1.8634100908620521e+01 -2 0 -1
463 1 1.2787188621391934e+01 3.7916652474174413e+00 3.3980216512941026e+00 0 0 -1
976 1 1.1182504150859952e+01 3.2909903259407498e+00 1.2431808531395225e+01 -3 0 0
972 2 4.6716996989737432e+00 -4.3737696277242888e-03 1.0903071424940345e+01 0 0 1
1079 2 1.8508373128078421e+00 4.3964150971747653e+00 6.9777067565921831e+00 -1 1 1
931 1 8.8048551490795135e-01 1.5492400724400612e-01 1.3591712869765955e+00 -2 0 0
189 2 3.1758058982883548e+00 1.5919191012041298e+00 6.5653417455216729e+00 -5 0 -4
186 2 1.1039322446639398e+01 9.1079055355165401e+00 1.0893747274355331e+01 -5 0 -6
572 2 5.9620126388066019e-02 2.4395998121755635e+00 1.0704750522386602e+01 2 0 4
167 2 -3.6865417874516457e+00 5.2063641218851773e+00 1.6460013613696109e+01 -3 0 -5
1630 1 -5.6599582099591768e+00 1.6523529157078047e+00 1.8450959743029511e+01 0 0 1
967 1 1.5846107689219014e+01 4.7175218471030655e-01 5.6187594967530679e+00 -2 0 0
1086 2 7.5847670173789510e+00 1.0460243730062817e+01 7.8221218688776544e+00 -1 0 0
408 2 1.3142416309533283e+01 3.5600779547759531e-01 7.0988267018982674e+00 -3 0 -2
1002 2 1.5594370491007576e+01 1.3522468971902422e+00 2.7435016306847131e+00 -1 0 1
93 2 1.4035476419108607e+01 5.9496630985527359e+00 1.7057684510937206e+00 0 0 1
230 2 1.0649526728341668e+01 1.7622471760073939e+00 2.0194125997332084e+00 0 0 -2
205 1 -2.0683992602873547e+00 1.7193233011322508e+00 1.5126644474182532e+01 3 0 -1
548 2 -3.9909275061002125e+00 1.6617854297530661e+00 1.2910753129308864e+01 -3 0 -4
113 2 6.5323865847942217e+00 3.1000858749738724e-01 1.4097541241066326e+01 -2 0 -1
693 2 -6.5379417396755946e-01 -7.9773637277795184e-02 1.3297353130350636e+01 1 0 1
246 2 -2.7532586828776884e-01 4.4863409289637524e+00 1.0069634611527093e+01 -2 0 -3
808 1 5.3805266167617036e+00 5.9283676566788923e+00 4.7151899724833850e+00 -4 0 -1
654 2 1.7023940955436448e+01 -5.3310565684352629e-01 1.4344914174085066e+00 -2 0 0
645 2 9.8414088767180168e+00 9.3134325862410061e-01 1.5675161764707006e+01 -5 0 -3
57 2 1.2535910194822932e+01 -7.2769974349419453e-01 1.0683486813255394e+01 -3 0 2
1001 2 1.5881794244515783e+01 2.8025031327369936e+00 2.9697550131897343e+00 -1 0 1
528 2 3.5138298363895037e+00 8.3209133449381656e-01 1.7080212843130379e+01 -2 0 -2
304 1 1.1357700713288954e+01 3.6832387778094420e+00 1.5900236065209912e+01 0 0 -3
717 2 1.0504312145989372e+00 4.0198354469187292e-02 4.5973973837079996e+00 1 0 2
857 2 1.0956261329343784e+00 4.4754767754818636e-01 9.3547696788327617e+00 -1 0 -3
185 2 1.0909842493142586e+01 8.4055855377125805e+00 9.5875260833570533e+00 -5 0 -7
17 2 1.3632493727532239e+01 8.0825328311419131e+00 1.0127127973955860e+01 -1 0 2
806 2 9.7755585425600131e+00 6.8225140556073436e+00 6.0977645527595810e+00 -3 0 1
950 2 4.1840723231427956e+00 9.6019332207912118e+00 1.5685168338271199e+01 -1 0 2
240 2 8.5165667280469410e+00 5.7149120106558371e-02 1.3034558269241934e+01 0 0 0
961 1 1.2076879625493464e-01 7.3015882419647475e+00 1.9000639615035135e+00 -2 0 0
761 2 1.1397034079753434e+01 -3.1385971409545854e-01 8.5038139044064813e+00 -3 0 1
784 1 -3.2114972997864997e+00 4.5473965285917810e+00 1.0501419515168529e+01 -4 0 -3
500 2 1.2415352298330408e+01 7.3692039461718917e+00 1.4979340033864274e+01 -1 0 0
776 2 -1.6250020630604105e+00 1.4498016573340928e+00 1.7608213106450201e+01 -1 0 1
630 2 3.2511398191245009e+00 3.1531048547794578e+00 1.5795126574726154e+01 -3 0 1
336 2 8.3272597300269133e+00 4.3065411446566095e+00 1.5209631903727317e+01 -3 0 -3
344 2 -4.1013124546230291e+00 -2.1880261736163364e-01 1.6745207980872742e+01 -1 0 1
521 2 7.3384548244166776e+00 5.6122827851655877e-01 2.4093284064480649e+00 -5 0 -1
444 2 1.2835652375997130e+01 1.5682865587407830e+00 9.5291149145783880e+00 3 0 2
764 2 8.2260605113964314e-01 1.1856755796849643e+00 1.4568547903767346e+01 -4 0 -4
504 2 6.3673519043520219e+00 9.2888725038745568e-02 9.7612243754901193e+00 0 0 -1
426 2 1.0887539730236284e-01 4.0859899753161635e+00 6.0334830978854228e+00 -1 0 1
176 2 -2.7476164389282509e-01 5.7156151127617738e+00 1.6354246854393949e+01 -5 0 1
963 2 -6.5059188292016623e-01 7.3183682295685060e+00 2.5033995008339285e+00 -2 0 0
1579 1 1.6647927518850821e+01 4.4701113308083196e+00 3.0709514270663489e+00 -1 0 1
102 2 2.3033952582018071e+00 5.8783040410246503e+00 2.6664551629139304e+00 0 0 0
1636 1 6.0084009504747629e+00 1.0014950601968046e+01 1.2473054484786928e+01 0 0 0
1000 1 1.5123171019776839e+01 2.1494216029741042e+00 2.9326805981457889e+00 -1 0 1
213 2 4.6208968110502662e+00 8.2463992822349610e+00 6.5169972648934182e+00 -4 0 -1
1632 2 -5.6105257222121123e+00 1.5245173937478151e+00 1.7508659863594524e+01 0 0 1
596 2 1.3368780147437118e+01 6.9166722999687886e+00 4.1407466241417588e+00 2 0 -3
232 1 2.1868114383802109e+00 6.1819781690542417e+00 1.4871559065482698e+01 -3 0 -1
871 1 7.4523195407880483e-01 -5.3136345112050765e-01 1.6950484489150334e+01 -2 0 -2
597 2 1.4861233377312507e+01 7.3115602825760195e+00 4.2735442164335069e+00 2 0 -3
212 2 5.4106222587839685e+00 7.1595679506737024e+00 5.7383583295328933e+00 -4 0 -1
723 2 5.7468887199477834e+00 4.3137504343527526e+00 1.6196443043380494e+01 -5 0 -3
12 2 8.4632565486778795e+00 4.2001120643255812e+00 5.4302419105422501e+00 0 0 1
34 1 8.3135383124316942e+00 3.6962683960262801e+00 8.8172154744705189e+00 -3 0 -1
378 2 -3.0323007552463705e+00 7.3824373441404401e+00 1.7961992939960126e+01 -4 0 -3
41 2 2.7553358211742269e+00 7.3632412618343750e+00 8.6199789971561245e+00 -3 0 2
576 2 -2.3218736257405315e-01 1.0074798426646634e+01 1.0154197644138861e+01 1 0 2
427 1 4.3423455164016476e+00 6.6574833530773434e+00 1.6695532337174662e+01 -1 0 -1
511 1 -2.0933457539734834e+00 1.7871758899430268e-01 1.0364972029333710e+01 2 0 1
222 2 8.7433169696782436e+00 6.2902438590409799e+00 1.6480114390865968e+01 -2 0 -2
221 2 9.8557999628141193e+00 7.1353426088541791e+00 1.7130886894423377e+01 -2 0 -2
446 2 3.0371481158160059e+00 3.0564143439436045e+00 1.2839193051605596e+01 0 0 -1
861 2 1.5866700624729530e+01 9.3201063040416017e+00 3.9322556860017457e+00 -3 0 1
714 2 5.3700867097512428e-01 1.4411294283992127e+00 2.4179789918892203e+00 0 0 4
36 2 8.3553807193267033e+00 3.8344740331441995e+00 7.8474600906104133e+00 -3 0 -1
100 1 1.6914377970815098e+00 5.1638328412382268e+00 2.6478065247121667e+00 0 0 0
883 1 -6.6451278764207977e-01 4.2279966292402493e+00 1.3322752636019834e+01 1 0 -1
672 2 7.0597449734358442e+00 5.7240772416312815e+00 3.7815082916430223e+00 -4 0 -1
726 2 4.0966896038080094e+00 5.9639964066359132e+00 7.6690413839263902e+00 2 0 1
556 1 5.6460151968093424e+00 5.0884922339436454e+00 8.7663149916398431e-01 -2 0 0
1097 2 5.4190540656099531e+00 4.2628239805536339e+00 6.9977344061066749e+00 1 0 0
615 2 1.3742951312849586e+01 1.6651166310330399e+00 1.5671899775243521e+00 -2 0 0
789 2 4.1543726213898289e+00 6.9542039236305908e-01 2.2554967873312108e+00 -2 0 0
1581 2 -6.2562337394008738e-01 4.1671166531345456e+00 2.4277444081390924e+00 1 0 1
306 2 1.1054835250765667e+01 3.7174013590440849e+00 1.6861459874055623e+01 0 0 -3
87 2 9.8211253259452604e+00 6.6791337742212997e+00 8.6116726353182020e+00 1 0 -2
1599 2 1.3453995154434772e+01 2.7484566852922123e+00 5.9173751794303548e+00 0 0 0
358 1 4.2111979083852757e+00 5.2926934660680400e+00 1.9009456634370771e+01 1 0 -1
1515 2 -1.4775234396353973e+00 8.9523823937732967e+00 8.1769141984703833e+00 0 0 1
38 2 3.7894519177892256e+00 9.7781117048964750e-01 1.2600422598709882e+01 -4 0 -3
902 2 1.2234049495423729e+01 6.2044660201100035e+00 8.6995086973554088e+00 -1 0 -1
827 2 3.5223079583939731e+00 2.7619415374463245e+00 3.2405201995909771e-01 1 0 1
694 1 -3.0115494477097262e+00 1.0071285171295560e+01 1.6633911249030717e+01 0 0 -1
187 1 4.1477531733124433e+00 1.3867135191673214e+00 6.4318952854607048e+00 -5 0 -4
969 2 1.5486084332094398e+01 1.2041848830399893e+00 6.1092638544936602e+00 -2 0 0
526 1 3.5058721728677931e+00 1.4465354769066194e+00 1.7878044529490122e+01 -2 0 -1
843 2 -1.5449216287574443e+00 2.4811627011103492e+00 8.2706654700909628e+00 -5 0 -5
116 2 2.1618511840191701e-02 7.7828446773448121e+00 1.6826407002747285e+01 -4 0 -5
118 1 6.9130092129382827e+00 7.1605323419525106e+00 8.3678881373798397e+00 -2 0 -2
90 2 6.8516156746109509e+00 2.6235666415228818e+00 8.8497510707254197e+00 -2 0 -1
944 2 8.2364559404254472e+00 7.3428642054743598e+00 1.2695102165212679e+01 -1 0 3
724 1 4.8175043210424411e+00 5.4292097674713791e+00 8.0737569027162088e+00 2 0 1
644 2 8.6415924303786760e+00 1.8166592086004525e+00 1.5269801712022641e+01 -5 0 -3
945 2 8.3415511074117816e+00 6.3737503324645868e+00 1.1421677684401891e+01 -1 0 3
406 1 1.2919428342516257e+01 -4.6692897953987145e-01 7.4828108685773858e+00 -3 0 -2
1059 2 5.2538057826089766e+00 5.4581911427487810e+00 1.2271698550347260e+01 -1 0 -1
238 1 9.3754528960163626e+00 3.8554990439589876e-01 1.2719334382379408e+01 0 0 0
224 2 7.5708868349249885e+00 1.3886892156314361e+00 2.8059700470592314e-01 -2 0 -1
884 2 -8.4861392069431663e-01 4.6901425802460741e+00 1.4240424018626165e+01 1 0 -1
934 1 6.4232225850996469e+00 2.4272408669196350e+00 1.2498573131818942e+01 -2 0 0
305 2 1.0797598877346509e+01 2.9481982421720132e+00 1.5536718405802320e+01 0 0 -3
207 2 -1.0968962794953931e+00 1.8255767337648456e+00 1.5123321971341911e+01 3 0 -1
767 2 6.1669504018839270e+00 2.4893529385919964e+00 1.5240707117505782e+01 -4 0 -2
665 2 4.8327693645025063e+00 2.5382511006391364e+00 1.8010051704127331e+01 2 0 3
922 1 1.0963852171922085e+01 6.2394060820237387e+00 1.4838955115808540e+01 -4 0 -4
738 2 -5.4469433198373540e+00 6.2393461528480492e+00 1.7789375191429954e+01 0 0 -1
101 2 8.9028104622309967e-01 5.6639900412327506e+00 2.8899511701634393e+00 0 0 0
845 2 1.0942761255844491e+01 1.9769176947090563e+00 5.9963959776301996e+00 1 0 1
681 2 5.3564587858300445e+00 3.2084596771008602e+00 3.7629912728593697e+00 -3 0 -3
112 1 6.8967578196723949e+00 -4.5701434505534022e-01 1.3641699832669893e+01 -2 0 -1
448 1 -1.1741452928665481e+00 3.2123941151030140e+00 1.7629393027453382e+01 -1 0 1
666 2 6.0780783879388816e+00 2.8684363633017180e+00 1.8829345485711222e+01 2 0 3
55 1 1.3169949892787882e+01 3.5351060744469365e-02 1.0709509487456573e+01 -3 0 2
664 1 5.5368008548163123e+00 3.2222587270668273e+00 1.8095007846897605e+01 2 0 3
70 1 1.6102252262520529e+00 4.7203031877688320e+00 6.0937994748389377e+00 -1 0 1
376 1 -2.4526943557205705e+00 8.0348420379228980e+00 1.8441209279965797e+01 -4 0 -3
519 2 -1.5932620154420127e+00 2.8177828697085316e+00 1.2522815384020298e+01 -3 0 -3
722 2 5.2935815098814274e+00 4.6338953354643158e+00 1.4745585771056973e+01 -5 0 -3
725 2 5.5852847618765802e+00 5.9916461604668934e+00 8.2297325150258800e+00 2 0 1
652 1 1.6124654752049445e+01 -3.5310326803193659e-01 1.4320553204680639e+00 -2 0 0
742 1 -2.4199539863133124e+00 5.6429888109583572e+00 8.2327188829739590e+00 2 0 2
499 1 -4.9025804633619847e+00 8.0958787882444287e+00 1.4747063477110807e+01 0 0 1
786 2 1.4207134806400502e+01 3.9337668089219058e+00 9.8865598887761674e+00 -5 0 -3
729 2 8.4420051754728149e+00 6.9700417719100676e+00 1.4638083848807815e+00 0 0 2
839 2 1.0746191514139632e+01 5.4494849814160542e+00 5.1419611626015209e+00 -1 0 -3
447 2 2.8648699020336039e+00 4.4019983105969045e+00 1.2037402690107522e+01 0 0 -1
16 1 1.4002013078318292e+01 9.0058556277312523e+00 1.0404925624248822e+01 -1 0 2
46 1 1.2610970256313086e+01 4.3255381354328892e-01 3.7699353458560370e+00 -4 0 -1
970 1 3.7512764683514259e+00 1.3268362797077193e-01 1.1176137712641756e+01 0 0 1
517 1 -2.2377382698134003e+00 2.3955036113462507e+00 1.1933527162990721e+01 -3 0 -3
505 1 7.7309967212525024e+00 9.3669159137178575e+00 1.5925562912343949e+01 -4 0 -4
513 2 -3.0937374758270524e+00 -4.9990822709743754e-02 1.0425208391502954e+01 2 0 1
188 2 4.6298312553395329e+00 2.2122067302713737e+00 6.5035630209178965e+00 -5 0 -3
392 2 2.8455690431210146e+00 4.0290455881365519e+00 3.8549111552392579e+00 0 0 0
121 1 9.2600688448739383e+00 9.8964341897016208e+00 7.0168099916729254e+00 -3 0 -1
856 1 1.2473861798781272e+00 3.9431774063224023e-01 8.4226247861907826e+00 -1 0 -3
1077 2 1.4153575744575502e+01 4.8906749499190632e+00 5.3282828059008525e+00 0 0 -1
1513 1 -1.6682958685167910e+00 8.2229577881546181e+00 7.5976261918669312e+00 0 0 1
1598 2 1.2977182381148607e+01 1.5121324358100345e+00 5.1337943422439896e+00 0 0 0
859 1 1.5885808376080243e+01 8.4882347959870224e+00 3.4633230116876645e+00 -3 0 1
436 1 1.2338747673332106e+01 8.9987006309202417e+00 1.2331744530666601e+01 -3 0 -1
691 1 3.2206107082322788e-01 4.4838137204680883e-02 1.3111457612769343e+01 1 0 1
86 2 8.5098306954431475e+00 6.9937337112327747e+00 7.8893054865924981e+00 1 0 -2
466 1 3.6754880889231378e+00 2.2762230049661754e+00 9.5511653543126567e+00 -3 0 2
428 2 3.6358546398469134e+00 6.2341169210830341e+00 1.6190171808285537e+01 -1 0 -1
578 2 9.5668540963505500e+00 1.1775261114784352e+00 1.7878945899734973e+01 0 0 0
506 2 6.7544975818072297e+00 9.2668734185559938e+00 1.5838222800745527e+01 -4 0 -4
89 2 6.6263437249506829e+00 1.4131544270104168e+00 7.9241972832358831e+00 -2 0 -1
838 1 1.1281991009219624e+01 4.8050078603376534e+00 5.6556297204191850e+00 -1 0 -3
599 2 4.3545050895111013e+00 6.7408163684229567e+00 1.6397658665183175e+00 -4 0 1
1057 1 5.5502137327591035e+00 5.7976613996680211e+00 1.3135104304696668e+01 -1 0 -1
1096 1 5.4243982164754927e+00 3.6374836125631429e+00 6.1647598900555822e+00 1 0 0
696 2 -2.1380430233522674e+00 1.0434829901110971e+01 1.6498574932231030e+01 0 0 -1
826 1 2.9048302742419585e+00 3.5308243296662312e+00 2.9342293367178968e-01 1 0 1
842 2 -1.9186067655009380e+00 1.1795160832802636e+00 8.9038477602290751e+00 -5 0 -5
538 1 1.7521743803468615e-01 1.0654960148560692e+01 2.1575165295046519e+00 -4 0 -3
996 2 6.3693019707153207e+00 9.8915932517719121e+00 1.8946171025825485e+00 3 0 2
42 2 2.0640087473673212e+00 8.0360258773669937e+00 7.3756859772724894e+00 -3 0 2
840 2 1.1830103109536417e+01 4.2527709390204596e+00 5.0632807194549079e+00 -1 0 -3
905 2 4.4933998239505168e+00 4.9044665000469809e+00 1.0118241088045709e+01 -3 0 1
785 2 -2.7410812620982199e+00 5.1687938538721010e+00 9.9393675458167277e+00 -4 0 -3
590 2 4.2573639934551757e+00 6.9247201478643436e+00 1.2702165979398986e+01 -5 0 -2
777 2 -7.3898960776008416e-01 1.9858861007022455e-01 1.7665025951224777e+01 -1 0 1
388 1 7.6098133128982193e-01 7.5863773314255827e+00 6.2109726851778522e+00 0 0 0
933 2 1.0357468441799917e+00 6.9288099219342580e-01 4.9170843565939726e-01 -2 0 0
901 1 1.2384729110725447e+01 7.1784856281443847e+00 8.8815650071673797e+00 -1 0 -1
929 2 1.0916940714343902e+01 6.3861315525818476e+00 1.3027577908384684e+01 0 0 -1
642 2 5.8625563885903951e+00 8.1949059283653582e+00 3.9432098997047982e-01 4 0 0
244 1 -6.0137292335595705e-01 3.8968964286858006e+00 9.3527585614727275e+00 -2 0 -3
912 2 4.2058340967486343e+00 -6.4907762996246643e-01 1.5974126815424343e+01 -2 0 0
458 2 7.4583762298044753e+00 9.7516461873520233e-01 5.5574027082911561e+00 -2 0 -2
731 2 1.0952083751264805e+01 9.5370092289370589e+00 3.5027655974442640e-01 0 0 0
807 2 8.9142231718112068e+00 6.8803743851042825e+00 4.7671936041404157e+00 -3 0 1
233 2 2.5595969599958996e+00 6.6745458040588934e+00 1.4107304494469728e+01 -3 0 -1
670 1 7.9374961211111295e+00 5.3612685421898369e+00 3.6689053584793552e+00 -4 0 -1
241 1 9.8707419948729456e+00 5.6284944699539716e+00 1.0159088181050752e+01 1 0 0
1085 2 6.2401886865885192e+00 1.0135612742216180e+01 8.5924082957068499e+00 -1 0 0
183 2 3.7359940548715613e+00 9.0600619669785747e+00 8.7315954815724854e+00 -2 0 -1
66 2 1.2308239737618754e+01 8.9204890534853476e+00 3.4819064001469902e+00 -3 0 -3
120 2 6.3623070017128995e+00 7.5341428279136942e+00 7.6345778585535173e+00 -2 0 -2
72 2 1.4122073635452765e+00 5.6975221111088441e+00 6.1335714523862448e+00 -1 0 1
557 2 5.7740016995944785e+00 4.5239082389583674e+00 1.6355208161825665e+00 -2 0 0
851 2 1.0138645431314874e+01 9.9201057297222910e+00 2.4796981048659239e+00 -1 0 1
882 2 -4.0857824518960095e+00 4.2314823550750260e+00 1.4430582134651418e+01 -2 0 1
707 2 9.6146518030994610e+00 1.5154119660987386e+00 1.1356699481530541e+01 -2 0 -1
181 1 4.1822209572069511e+00 9.7971197795773737e+00 9.2069082843376648e+00 -2 0 -1
261 2 1.2771895811549154e+01 4.0143218390412780e+00 1.2110082520923413e+01 0 0 1
28 1 1.2718663122925364e+00 1.4556533049036320e+00 5.7632234453059636e+00 -3 0 -4
801 2 7.4113436527052912e+00 -1.0182468577129511e-01 1.7447024234467428e+01 0 0 -4
690 2 1.6037700535822506e+01 4.7480946941079276e+00 8.4962140395187249e-02 -2 0 0
736 1 1.1584839315001343e+01 6.6565436689534483e+00 1.8103437862859597e+01 -1 0 -1
11 2 8.8809361300157565e+00 2.9411266804769931e+00 6.1107786375340334e+00 0 0 1
911 2 3.0256471268476188e+00 -5.2780506923054438e-01 1.5037238752722734e+01 -2 0 0
628 1 2.3544472119722313e+00 3.4415676605975261e+00 1.5932013765456102e+01 -3 0 1
68 2 1.8097545405308528e+00 9.6423691442464481e+00 1.1316405394065500e+01 -3 0 -2
874 1 -2.2790767397321376e-01 5.8909344320205372e+00 1.1215710707434777e+01 -2 0 1
730 1 4.8165602356565946e+00 9.3255226894368413e+00 1.8555034211861056e+01 0 0 -1
243 2 1.0373019802449756e+01 4.9750957511077791e+00 9.6911275669150161e+00 1 0 0
315 2 7.8073273580961988e+00 9.7316679864334841e+00 1.2732681271204923e+01 -6 0 -4
993 2 7.6700585405516915e+00 3.4224397810996816e+00 1.3273631381091363e+01 1 0 1
763 1 6.1197261020677107e-01 1.6829540912124643e+00 1.5345091239584447e+01 -4 0 -4
29 2 6.4398537942062473e-01 2.0923660952742575e+00 5.3914570294155206e+00 -3 0 -4
1631 2 -5.0323480439037400e+00 2.3757859076933801e+00 1.8762241338642774e+01 0 0 1
744 2 -2.3238275812021176e+00 6.6308256887963903e+00 8.1721939329522613e+00 2 0 2
404 2 4.3415960998805279e+00 5.7296603345154962e-02 7.3391776438681458e+00 3 0 1
765 2 1.2894696933097078e+00 2.3225207410394098e+00 1.5624723829697675e+01 -4 0 -4
1584 2 1.0901087646097607e+00 4.0215251791456712e+00 8.8328950125765164e+00 0 0 0
334 1 8.2659674308465156e+00 4.7347456404229398e+00 1.6116374153847396e+01 -3 0 -2
158 2 3.0415092106337411e+00 9.5609520361882865e+00 1.8060537856838503e+00 2 0 0
425 2 -8.0523976135538844e-01 3.8646099634687596e+00 4.7778694988855630e+00 -1 0 1
1582 1 2.0503124646759527e+00 4.0590447837149348e+00 8.6045791752015965e+00 0 0 0
803 2 8.2087773344812387e+00 3.3549829150693844e+00 8.8367336236080096e-01 -2 0 -2
92 2 1.5291293708012786e+01 6.6955689704762049e+00 1.1362548412668672e+00 0 0 1
67 1 2.7844207412614770e+00 9.6849550790007424e+00 1.1515725391315362e+01 -3 0 -2
128 2 8.6310086085141595e+00 9.0439780079750776e+00 1.0123176413773352e+01 -3 0 -1
712 1 3.6628092062878936e-01 2.2348282279496963e+00 2.9098794693178576e+00 0 0 4
669 2 2.6964623259242497e+00 -3.0810226129372054e-01 3.6655385101346067e+00 -3 0 -2
1514 2 1.5308387165908302e+01 8.3540957882237237e+00 7.2516920415666002e+00 -1 0 1
880 1 -3.9871593607964222e+00 3.7156924740581907e+00 1.5260007419474389e+01 -2 0 1
512 2 -1.9500040013335784e+00 7.7378461461227310e-01 1.1169109620036217e+01 2 0 1
30 2 1.0550246861200780e+00 1.3334953762509900e+00 6.6718918761050974e+00 -3 0 -4
643 1 9.5966159750964941e+00 1.7623040785128175e+00 1.5272015195803387e+01 -5 0 -3
810 2 5.2679859985953339e+00 5.1558947432960833e+00 5.2718827928933534e+00 -4 0 -1
390 2 -1.6465415039153575e-01 7.6589130794122813e+00 6.6537839993309147e+00 0 0 0
149 2 -1.4644770769134174e-01 -6.6187427732039517e-01 7.8588351656008983e+00 -4 0 -1
172 1 -1.8458955918083970e+00 8.0755379787173620e+00 1.1568292376589012e+01 0 0 -2
743 2 1.4907872522626107e+01 5.3267403825800423e+00 7.5144535336287390e+00 1 0 2
83 2 1.0717123153694507e+01 -6.9590411467121949e-01 1.2196051511823922e+00 0 0 -3
107 2 9.9490620897287556e+00 1.0137574812295012e+01 1.3267908829762064e+01 -4 0 -1
450 2 -8.8259391566563039e-01 3.4547043467721901e+00 1.6744188285765485e+01 -1 0 1
350 2 6.4854052312524821e+00 9.0626012653216996e+00 5.2233412912909776e+00 3 0 4
850 1 9.9177928338378774e+00 9.8069956993531484e+00 1.5306341818116733e+00 -1 0 1
259 1 1.3302969507654566e+01 4.6675310172664215e+00 1.2665713125580913e+01 0 0 1
910 1 3.6950229006474959e+00 4.5592886358798657e-02 1.5513344399776052e+01 -2 0 0
679 1 5.8308615874491565e+00 3.1317983143229258e+00 2.9195113375366089e+00 -3 0 -3
214 1 -2.2132571333167808e+00 7.5318146084921658e+00 1.4280120619116843e+01 0 0 -3
498 2 1.1875639302229649e+01 6.0311405263922797e+00 1.1300177307281343e+00 0 0 1
438 2 1.2094928427402406e+01 8.0812100917700125e+00 1.2134775939264314e+01 -3 0 0
137 2 1.4667070285458854e+01 9.3375003659177231e+00 3.2187183959625337e-01 1 0 0
182 2 3.7971307539854364e+00 9.7657139506219259e+00 1.0108469937147536e+01 -2 0 -1
522 2 6.7039925844076871e+00 -4.9295573797670855e-01 1.2912225751448942e+00 -5 0 -1
168 2 -3.7885026609718424e+00 4.8061932049174994e+00 1.7948898000636689e+01 -3 0 -4
809 2 4.6424377134425550e+00 6.0707272036471736e+00 4.1046637685667298e+00 -4 0 -1
904 1 4.6577514882145294e+00 4.4348450793350835e+00 1.0963826235285721e+01 -3 0 1
614 2 1.3415457371216029e+01 1.0457857040264669e+00 2.1665012660190805e-01 -2 0 0
547 1 1.3056747350507511e+01 1.2568151378338124e+00 1.3099265100301736e+01 -4 0 -4
852 2 9.5503045118954368e+00 8.8757432615389451e+00 1.5446082929777487e+00 -1 0 1
968 2 -1.5732111654110361e+00 -1.4256533497909452e-03 6.2746599833367327e+00 -1 0 0
215 2 -3.1832656625885756e+00 7.4976434981541296e+00 1.4451413791640604e+01 0 0 -3
335 2 8.3032376767252032e+00 3.9772666558113032e+00 1.6800298836921179e+01 -3 0 -3
424 1 -7.4547150786909211e-01 3.5881632249241040e+00 5.7106919659498443e+00 -1 0 1
800 2 5.9423393596172094e+00 -6.4137830629194625e-01 1.7499666557879959e+01 0 0 -4