LAMMPS data file via write_data, version 3 Mar 2020, timestep = 0

2016 atoms
2 atom types

0.0000000000000000e+00 1.7912194800229443e+01 xlo xhi
-1.4651981331394026e+00 4.6461358110055599e+01 ylo yhi
0.0000000000000000e+00 1.9048860546582137e+01 zlo zhi
4.5779562069382586e-02 -6.6466707408089292e+00 -2.3292041748263159e-02 xy xz yz

Masses

1 16
2 2

Atoms # atomic

579 2 2.0381981824644662e+00 5.2792906007614562e+00 1.6783161795228825e+01 0 0 0
223 1 -4.1302632628961433e-01 6.2710055910702200e+00 1.8987830449971177e+01 -2 0 -2
995 2 6.6928073177312024e+00 3.8117499381063453e+00 8.0889427037274348e+00 3 0 1
654 2 1.4492856799059169e+01 5.3502118028664531e+00 4.0221876782179473e+00 -2 0 0
394 1 9.0234052795464024e+00 3.3934109957037268e+00 2.9760722227407843e+00 -3 0 -3
578 2 2.1491244488773473e+00 5.8341102495109665e+00 1.5322125769960728e+01 0 0 0
929 2 1.4987694346880550e+01 2.9196453690098121e+00 5.0681630502826200e+00 0 0 0
513 2 7.9496071042795275e+00 -3.8431389289042239e-01 1.5670414946982408e+01 1 0 0
705 2 -1.9771162892637149e+00 6.5370063679006947e+00 1.2877670583096615e+01 -2 0 -1
302 2 7.8745970588912515e+00 6.2136380489810854e+00 6.0742841803593040e-01 0 0 0
299 2 1.1780792727558520e+01 2.5633531688882867e+00 1.7084960282258603e+01 -3 0 -2
896 2 1.0696383762484112e+01 6.1416995271500436e+00 1.5342310746923960e+01 -1 0 -1
150 2 -3.7880405032866822e+00 8.7605367498031175e+00 1.4465565464647161e+01 -3 0 -1
406 1 -3.9283273941325358e-02 2.2204510285960186e+00 1.0246026461754013e+01 -2 0 -2
314 2 -3.9343408806851521e+00 1.0278757345822150e+01 1.2750658474400526e+01 -3 0 -3
596 2 1.5953567681183074e+00 4.3436522609877555e+00 4.0557733174183026e+00 3 0 -2
630 2 1.0118452156053406e+01 9.7926874554990153e+00 7.1113169150579703e+00 -2 0 2
320 2 1.0236934471813981e+01 -1.0739059870599994e+00 1.3892574103169704e+01 -4 0 -3
881 2 1.0145247439602226e+01 3.3058657205708597e+00 9.8124228413386234e+00 -3 0 2
319 1 1.0856923986314623e+01 -5.3643825449282545e-01 1.4384276322771059e+01 -4 0 -3
53 2 9.2807469961712936e+00 1.6982634030562758e+00 2.3090018430027306e+00 2 0 0
561 2 8.7920276558833130e+00 7.7253627831999072e-02 7.1232417392957066e+00 -2 0 1
609 2 2.6623045009124473e+00 2.3789873830520807e+00 2.1395244728444887e+00 -3 0 0
1583 2 -4.5921380388125579e+00 8.3111720837349745e-01 1.6305981486406413e+01 0 1 1
122 2 8.6765536230048035e+00 5.4571049326587211e+00 1.5234731878980231e+01 -2 0 -1
87 2 1.0999961781481657e+01 -1.0257630181868367e+00 1.8636058835445276e+01 1 0 -3
407 2 -7.9170426377834913e-01 2.7681832354577347e+00 1.0529097801505726e+01 -2 0 -2
707 2 -1.6722107729597813e-01 6.6496582039812484e+00 1.4231147712763038e+01 -1 0 -1
972 2 2.7599237874658851e+00 8.7120047158561444e+00 1.9693074730541904e-01 0 0 1
448 1 2.9456008548081116e+00 7.3310590496069032e+00 7.0049400001887019e+00 -1 0 1
244 1 1.3148669176385077e+01 5.4255273182827750e+00 1.1853703996735437e+01 -4 0 -4
762 2 8.8776363986515072e+00 -3.2066402209292666e-01 7.1802890591119961e-01 -3 0 2
839 2 2.7517519659453227e-01 8.9343541558288813e+00 2.3367648757859634e+00 0 0 -2
977 2 5.3002124629495988e+00 -3.3907032977688889e-01 1.7892164858892279e+01 -3 0 -1
840 2 -1.4660142262447692e-01 9.3116445829773262e+00 8.1616329938090038e-01 0 0 -2
301 1 8.7373271428970867e+00 6.3635165861219631e+00 1.0107758860391567e+00 0 0 0
149 2 -4.9602578193973512e+00 9.7821527290066275e+00 1.4867579537878674e+01 -3 0 -1
270 2 -2.2279290195147556e+00 7.5960608927867028e+00 1.5360365200233964e+01 2 0 -1
463 1 7.6186027565691372e-01 7.9857609163212366e+00 3.7281558694667778e+00 2 0 0
449 2 3.2919477688871930e+00 7.5855122398414583e+00 7.8935139553285723e+00 -1 0 1
524 2 -9.1747508622225249e-01 2.9799537622369572e+00 1.3275718723034386e+01 -2 0 -4
714 2 -1.3293902248829368e+00 -5.8372800384079626e-01 1.0955847051731844e+01 0 0 3
523 1 -1.3167032706222770e-01 3.5762934683425280e+00 1.3242995838920880e+01 -2 0 -4
658 1 4.5674870130915117e+00 3.6646588782760050e+00 1.4155244882442691e+01 -1 0 -2
206 2 3.7624985856959912e+00 1.4999236360791515e+00 1.1933238123696931e+01 3 0 0
96 2 -1.8104311360745582e+00 6.1742145912030546e+00 7.0012335563122381e+00 -1 0 -1
441 2 -5.8720492368749344e-01 4.0193797626521643e+00 1.4992279427506235e+01 -2 0 -1
151 1 5.6978479604718579e+00 1.3157487777443375e+00 2.7601345365641277e+00 3 0 0
781 1 -4.6780307957851193e+00 7.5039003290262176e+00 1.8888202650667143e+01 -2 0 -3
880 1 9.6066988564614668e+00 2.6424988867676831e+00 9.4272139989091990e+00 -3 0 2
626 2 3.2376175605479594e+00 2.4423063302407177e+00 1.7046665660046362e+01 0 0 -1
389 2 1.3455270789687646e+01 -1.6686609545112496e-01 4.3705766548622806e+00 -1 0 0
703 1 -1.1848022106364486e+00 6.0323721384715201e+00 1.2607402496536736e+01 -2 0 -1
382 1 -5.8265440836402582e-01 5.4662387934904402e+00 1.7709146568541956e+00 -1 0 1
750 2 2.0282468342237010e+00 9.6256355352627132e+00 1.2441298864237076e+01 -3 0 1
184 1 5.9474252597035298e+00 -6.3168439668797427e-01 8.0170920175887872e-01 -4 0 -6
54 2 9.0709654720570132e+00 2.4191444305916376e-01 2.6661555069651728e+00 2 0 0
950 2 -5.0865098190769444e+00 5.4173152558538717e-03 1.8609680252197599e+01 -1 0 1
689 2 -8.7203110073217860e-01 1.9711456408405286e+00 6.7287361921911435e+00 -2 0 0
444 2 7.0014804411147278e+00 1.0254476363902510e+01 2.6103703555828934e+00 3 0 2
392 2 3.2081566606275524e-01 8.0701520842247376e+00 1.0225293906174588e+01 -1 0 -1
652 1 1.4913053216432498e+01 6.0361008685385826e+00 3.4240734857950801e+00 -2 0 0
52 1 9.3027274220076031e+00 8.2101907395587892e-01 1.9057071883534493e+00 2 0 0
356 2 -1.3196782925849728e+00 8.7088810602924074e+00 1.7139914794188346e+01 -4 0 -3
477 2 5.2737250746529618e+00 7.2569133418342648e+00 1.1311212012930987e+01 -1 0 2
500 2 -2.7478471944696512e+00 1.9302098209941785e+00 1.2994074412037127e+01 1 0 0
978 2 6.1693530200031361e+00 -6.8512604002607902e-01 1.6648458558858671e+01 -3 0 -1
806 2 1.1368099402189683e+01 9.8781682467627991e+00 2.5632005331932941e+00 -4 0 1
789 2 4.4466518535474489e+00 8.4603350624733267e+00 1.5383518657923245e+00 -2 0 0
810 2 6.2400199690626641e+00 4.2181876105252396e+00 4.8121902477209026e+00 -4 0 -1
930 2 1.3705440652254136e+01 3.1443485679886765e+00 4.3628096985360063e+00 0 0 0
702 2 4.7944415162400222e+00 8.0857755933629960e-01 1.5599392220322960e+01 -3 0 -3
501 2 -1.6301404011503720e+00 8.2194164889082089e-01 1.2792544236444028e+01 1 0 0
625 1 3.9037451017793456e+00 3.1120869702963931e+00 1.7187281780816644e+01 0 0 -1
433 1 1.0824484085891324e+01 8.8596212855197614e+00 1.8221465347583109e+01 -2 0 0
101 2 4.5908591958419507e+00 4.1623237836233500e+00 1.0290659228615425e+01 -1 0 -1
384 2 1.6607384508349014e+01 6.0588473952711652e+00 2.0543847886007671e+00 -2 0 1
245 2 1.3213157120058041e+01 5.5355359570886398e+00 1.2807159170947683e+01 -4 0 -4
622 1 4.4991674853242039e+00 4.3193459124111220e+00 6.9105849785215931e-02 -2 0 -1
624 2 3.7723033503013612e+00 4.6912538973499212e+00 5.7474399820436350e-01 -2 0 -1
179 2 5.6047871726721104e+00 6.2955017970090372e+00 1.8426906690654238e+01 -3 0 -1
334 1 1.1053931048593554e+01 8.4894279992713368e+00 7.6818421383864663e+00 -2 0 -1
278 2 7.7341945740455387e+00 7.5786723155488822e+00 8.6059088159014934e+00 -4 0 -1
19 1 9.4423939155270276e+00 8.8076382221838809e+00 3.4780229283364758e-02 -3 0 -3
268 1 -2.2388499211838555e+00 7.9856846133698145e+00 1.4440109141862228e+01 2 0 -2
600 2 -5.4623782054060221e-01 8.2276790380689224e-01 9.6068996896406240e+00 -3 0 1
49 1 9.7827889669211352e+00 5.5582092022203957e+00 8.2410375845714103e+00 -1 0 0
183 2 1.0374569256268220e+01 6.8633066127288913e+00 5.6716636476666826e+00 -1 0 0
464 2 1.2008918725760220e+00 8.6091632407264669e+00 4.3204586140449290e+00 2 0 0
393 2 1.0505527183738428e+00 7.9731758939966735e+00 1.1520192384223270e+01 -1 0 -1
167 2 1.2487168316277513e+01 9.0961341302442822e+00 7.2657837042537947e+00 -4 0 -4
671 2 -1.4764843757144464e-01 -7.0412563744612422e-01 7.9530300896236765e+00 -3 0 -1
135 2 -2.5848658207397266e+00 2.3904918047608583e+00 7.7438311404469049e+00 1 0 -1
778 1 5.4948112010156951e+00 9.7959154634068799e+00 5.0119650304392591e+00 1 0 0
925 1 -4.1345511512303057e+00 -1.1508013450705601e+00 1.3477246096301343e+01 2 0 2
598 1 -8.6771141138842456e-01 -6.5343182045144443e-02 9.2619210670194612e+00 -3 0 1
120 2 5.3842814755399573e+00 4.8427053124826163e+00 2.8836183665239550e+00 -2 0 -2
858 2 1.4725515613238128e+01 6.8342264471927106e+00 8.2079686849755511e+00 -2 0 -3
640 1 -2.0200628835481238e+00 4.1791225939699395e+00 1.0586589182219452e+01 4 0 -1
753 2 -2.3314748051049135e+00 3.7004220481003642e+00 1.6147044287597470e+01 0 0 2
976 1 5.2898738129479259e+00 -4.4536464573467938e-01 1.6938192279513771e+01 -3 0 -1
119 2 4.0585636035975998e+00 4.2922385942087535e+00 3.3506736924799201e+00 -2 0 -2
525 2 -4.3419367478387816e-01 4.4060151123271787e+00 1.2888127511860368e+01 -2 0 -4
495 2 -9.4943429536641211e-01 8.4768993522488572e+00 8.3613908593746586e+00 -3 0 -2
435 2 -6.1908331077376628e+00 8.9307630284435326e+00 1.7892752675246349e+01 -1 0 0
276 2 1.4165544069788682e+01 3.5353543222617523e-02 3.3485786318429378e-01 2 0 0
212 2 5.7582533419814110e+00 3.6732365158900357e+00 1.2567349876154530e+01 -5 0 -2
701 2 4.5738376866603936e+00 1.9332034290652378e+00 1.4509937100083452e+01 -3 0 -3
670 1 3.6532629764838731e-02 -1.0064310747660001e+00 7.0308926401294629e+00 -3 0 -1
470 2 1.6848963412921233e+01 3.8580209194644270e+00 1.6504765994652608e+00 -7 0 -2
471 2 1.5927329842962843e+01 2.6645317451336901e+00 1.2373929027657413e+00 -6 0 -2
708 2 1.4830359540786819e-01 7.4216184933221339e+00 1.5570937106602967e+01 -1 0 -1
85 1 1.0435504710195289e+01 -2.5706739293587555e-01 1.8751543295887206e+01 1 0 -3
46 1 8.7677902151786267e+00 7.9393582251607615e+00 5.7317610852516943e+00 -3 0 0
65 2 6.2856222099635239e+00 2.0569481535741891e+00 8.9904501648036241e+00 -2 0 -3
926 2 -3.4491810086720864e+00 -7.0157999570294149e-01 1.3013094848771612e+01 2 0 2
627 2 3.6980885210618233e+00 3.7873568732662717e+00 1.6516435048389617e+01 0 0 -1
111 2 2.1066911732558742e+00 4.2280454300945536e-01 1.7811971680979113e+01 1 0 -4
869 2 1.3108926921546058e+01 4.0145203945640802e+00 6.5224165710079562e+00 1 0 0
16 1 8.1274786634915408e-01 3.7439991546820099e+00 1.8084609447516826e+01 0 0 1
178 1 6.4612024454047390e+00 6.0408699504773287e+00 1.8048111362129724e+01 -3 0 -1
974 2 1.0731057915969554e+01 6.3506201895494163e-01 1.5747997529345628e+01 -4 0 -2
118 1 4.7275099025532468e+00 4.9816123215870940e+00 3.5528509181847019e+00 -2 0 -2
591 2 2.8627391000832825e+00 9.8629448175417114e+00 1.0338855351542238e+01 -4 0 -1
623 2 -2.2380031609486695e+00 3.2926365611540618e+00 1.9026012174362219e+01 -2 0 -2
1668 2 3.6849603508857776e+00 3.8179978837780819e+00 1.3803043720276149e+01 -1 1 -2
644 2 9.4341215159932368e+00 3.2348098617924750e+00 1.2494674083332882e+01 -4 0 -3
527 2 2.6358364290233371e+00 4.9061307371632057e-01 8.6906874271995083e+00 -2 0 0
846 2 6.7754570715322222e+00 -6.8198438260614169e-01 1.1953111447903861e+01 1 0 1
239 2 2.6572058208061975e+00 4.7172918373849200e+00 1.1862295570503381e+01 0 0 0
716 2 6.7455465553728651e+00 3.4453093086396684e+00 7.8441338702147856e-01 1 0 2
717 2 7.5753562482551704e+00 3.7063116095476669e+00 2.0463287106174830e+00 1 0 2
240 2 1.6597507858467342e+00 4.0914491665209720e+00 1.2913240567654087e+01 0 0 0
904 1 5.6483045539957910e+00 6.1208578947538976e+00 1.5199926163980161e+01 -3 0 1
17 2 1.1747610758761784e+00 2.8217981671217451e+00 1.7994732611650488e+01 0 0 1
503 2 3.8257765421849843e+00 -6.7508089115233405e-01 1.0059324233467096e+01 0 0 0
760 1 1.9225328907857868e+00 -9.1011667283708253e-01 1.8988268970436060e+01 -3 0 1
645 2 9.2825831625661142e+00 1.8897512957919393e+00 1.3356412581703063e+01 -4 0 -3
613 1 -2.1478409475662232e+00 1.5670231113113520e+00 1.8547047314026969e+01 -2 0 -1
246 2 1.3633934785869545e+01 6.1837489646102535e+00 1.1476794928893064e+01 -4 0 -4
238 1 2.3940578007703710e+00 4.6745250273317041e+00 1.2789174924778299e+01 0 0 0
522 2 7.5352782429624696e+00 5.1931418051667633e-01 1.0391643682088169e+01 -5 0 -2
715 1 6.6883394233695155e+00 3.5722581305883523e+00 1.7337600351817026e+00 1 0 2
115 1 1.1550469816855991e+01 4.7115188642383043e-01 1.1843846502808228e+01 -5 0 -5
426 2 1.2256227426268703e+01 2.9930842155330826e+00 2.7755472340932443e+00 -2 0 1
494 2 3.4222404323486222e-01 9.0083685447830515e+00 7.7149050236944889e+00 -3 0 -2
354 2 1.1356147722349251e+01 7.9764806447570891e+00 1.1142057135072577e+01 -1 0 0
530 2 7.5840379071319495e+00 -1.0638899962631987e+00 3.5722371736746767e+00 -1 0 0
933 2 -8.2030233400207564e-01 1.0132616675348411e+00 1.5077860513372514e+01 -2 0 -1
529 1 8.3689881837410613e+00 -6.8290475292821018e-01 3.9472933125500584e+00 -1 0 0
868 1 1.2427400949272075e+01 4.2778112527669876e+00 7.1140051718778867e+00 1 0 0
291 2 6.8028186031645692e+00 5.9948176985181547e+00 7.1753371977314391e+00 0 0 3
18 2 1.7019764316597108e-01 3.7972995467971868e+00 1.7290003714112103e+01 0 0 1
275 2 8.6971396978581232e+00 -6.6874240538210483e-01 1.8820355640914272e+01 2 0 -1
779 2 4.8928407290626783e+00 1.0245807764331612e+01 4.3593793698614194e+00 1 0 0
785 2 5.0286257072692409e-01 2.2287845824586348e+00 1.1570294933006018e+00 -3 0 -2
870 2 1.1812066800323727e+01 4.8684845716329450e+00 6.6737204035555067e+00 1 0 0
211 1 6.3038821506737452e+00 3.4688993493345190e+00 1.1812695928737890e+01 -5 0 -2
387 2 4.7592390051892366e+00 6.3869872005665433e+00 4.6108182910794246e+00 0 0 -2
216 2 -8.2439124734647007e-01 8.1824025332085775e+00 4.6050942803322172e+00 0 0 -2
643 1 9.8950705620114512e+00 2.4092723344935272e+00 1.2826654709294672e+01 -4 0 -3
549 2 6.0600610274782474e+00 9.5752821494146083e+00 1.7631747508231960e+01 -3 0 -4
991 1 1.3496454703417808e+01 -7.3673784038931889e-01 9.9258198306059420e+00 1 0 1
289 1 6.6929519944044689e+00 6.9673921326548456e+00 7.0750399352256510e+00 0 0 3
116 2 1.1116499358345317e+01 1.2190728542753484e+00 1.2280141160149102e+01 -5 0 -5
224 2 -8.9357313185790588e-01 5.4058192024140350e+00 1.9016550863289527e+01 -2 0 -2
845 2 7.7492481590812154e+00 2.3068517991402215e-01 1.2754841032790154e+01 1 0 1
48 2 8.4523146989947282e+00 8.8606704753320553e+00 5.6099750567851387e+00 -3 0 0
117 2 1.0809306545584903e+01 2.7653584270623255e-01 1.1180255951686433e+01 -5 0 -5
931 1 -8.6774289892999157e-01 9.7212407950736823e-01 1.6069426386510866e+01 -2 0 -1
429 2 1.1526135536426256e+01 6.9558563935755782e+00 1.3212346172575625e+01 -1 0 -1
385 1 4.7377751147655509e+00 7.2018124349829709e+00 5.1613970056666236e+00 0 0 -2
252 2 4.1748828282014436e+00 8.3236986000993625e+00 9.8455952919515877e+00 -3 0 1
961 1 1.6486178656095847e+00 4.5293614495877543e-02 1.4462155948641842e+01 -3 0 -1
42 2 3.2528272431720850e-01 5.0754959844785441e+00 7.0224170330386020e+00 -2 0 3
726 2 1.1644152862767356e+01 1.4475047231732994e+00 6.8514970005224978e+00 1 0 1
876 2 1.1657923132005044e+01 5.2222003221283213e+00 1.1005070329519393e+01 -3 0 1
769 1 1.4320270615732941e+01 5.5598344474505019e+00 8.8588553895624571e+00 0 0 -3
1002 2 7.7697361460569851e+00 1.8117203727205693e+00 5.7645184684885766e+00 -1 0 1
727 1 8.6926064411724298e+00 8.9131800916947430e+00 1.5613388838281802e+01 0 0 1
905 2 4.8380903233667043e+00 6.4727845170108287e+00 1.4801829914017587e+01 -3 0 1
41 2 1.3568707569027669e+00 4.1503953928089334e+00 6.4036375156398826e+00 -2 0 3
434 2 1.0459410366348150e+01 9.6290410698611293e+00 1.7731648734915016e+01 -2 0 0
812 2 1.2423171966685544e+01 2.3365430178211657e+00 1.4345036839084269e+01 -2 0 -1
932 2 4.6074052378521912e-03 1.2611039237075898e+00 1.6293028383801676e+01 -2 0 -1
843 2 -1.0367143541608339e+00 -8.1918216718862591e-01 1.6525600065495190e+01 -5 0 -5
213 2 5.8927531651904586e+00 2.5723761060424595e+00 1.1602235836526075e+01 -5 0 -2
290 2 6.0543373015548223e+00 7.0086524006813153e+00 6.3228706198612983e+00 0 0 3
295 1 -2.4570819015664771e+00 9.9113328779425824e+00 1.7109768640256078e+01 2 0 2
338 2 2.3883168638690826e+00 5.7129973959294835e+00 2.3649528593681142e+00 -1 0 -1
307 1 -6.4136255004861820e-01 1.0170793096213506e+01 1.4448458747521318e+01 1 0 1
969 2 2.5862391651304186e+00 4.1455322540070290e+00 9.4023734722509751e+00 -1 0 1
545 2 1.4590962426054981e+00 7.8443540764539321e-01 1.3005898719287650e+01 2 0 1
386 2 4.0440929879978960e+00 7.0684877361794953e+00 5.8782267005105115e+00 0 0 -2
937 1 1.3304259920058200e+01 9.5842696173394515e+00 1.4700181670567214e-01 1 0 2
40 1 1.3165476342474971e+00 4.9277368733743661e+00 7.0184175256399328e+00 -2 0 3
786 2 1.4616917650613706e+00 2.3917645961221496e+00 6.3606879976010930e-02 -3 0 -2
214 1 1.6098281631034677e+01 8.3373387574967879e+00 4.6688098413380379e+00 -1 0 -2
724 1 1.1334945486611941e+01 1.8525035780866088e+00 7.6566892540466283e+00 1 0 1
784 1 1.4239822383250320e+00 1.9513623533979780e+00 9.2394692906587206e-01 -3 0 -2
967 1 1.9463709130535185e+00 3.4987753886790767e+00 8.8743875230387612e+00 -1 0 1
553 1 8.3349493054134989e+00 2.6303161856846717e+00 1.6091147173481264e+01 -5 0 -2
681 2 6.5485173367944958e+00 4.2307140210911145e+00 1.8081307293180760e+01 -3 0 -3
649 1 5.9050894576763620e+00 8.3833672393191705e-01 5.4723940336817849e+00 -4 0 0
650 2 5.5066992567600161e+00 1.6765047873339953e+00 5.7189908772098370e+00 -4 0 0
51 2 8.9150172045408027e+00 5.0801198512986945e+00 8.4037942381773796e+00 -1 0 0
36 2 -1.1063759837970928e+00 1.5245498854579118e+00 4.5583856630919746e+00 -1 0 0
945 2 1.0920333143862189e+00 2.2228358407601454e+00 5.4942785419950351e+00 0 0 3
673 1 -3.4752538319300124e+00 6.5956850305793164e+00 1.6658223654001123e+01 0 0 -4
919 1 1.0623076994768681e+01 -8.5762749120270798e-01 9.6652776453092475e+00 0 0 -2
397 1 1.2276142652039441e+01 6.7158028524790030e+00 3.2324307312082454e+00 2 0 0
127 1 1.1350368471548256e+01 4.3016725915583702e+00 2.2640808028370261e+00 -2 0 -1
128 2 1.1106666915593209e+01 4.4385212516167991e+00 1.2898391959890956e+00 -2 0 -1
1407 2 1.3282164492909331e+01 6.6756249092893416e+00 3.0291137331095968e+00 2 0 0
34 1 1.6046908549111805e+01 1.5027222047507629e+00 3.9349346754010770e+00 -2 0 0
928 1 1.4239635167829238e+01 3.5753969932855769e+00 5.1083387173426207e+00 0 0 0
777 2 1.0933966555041835e+01 4.5462594846096804e-01 9.5243568306972803e-01 -2 0 2
152 2 6.1050242480984718e+00 2.2621287315897729e+00 2.5010377831623463e+00 3 0 0
439 1 -7.8419526965979713e-01 4.3451124540940329e+00 1.5850865043129300e+01 -2 0 -2
350 2 1.3788620308703967e+01 1.9074786731944000e+00 1.8001713235578216e+00 2 0 4
31 1 3.7612252705418054e+00 7.8172179479930541e+00 1.6777678061310937e+01 -4 0 -5
176 2 4.8473117975696463e+00 -2.6993887290929708e-01 1.3338153750900752e+01 -5 0 1
783 2 2.3569291375488679e+00 6.8111877795001732e+00 4.8739387519169258e-01 -2 0 -2
148 1 -4.4969983086983767e+00 9.3300878933382130e+00 1.4120155681425919e+01 -3 0 -1
994 1 7.3329480532542002e+00 4.3719467281818645e+00 7.6043848315824629e+00 3 0 1
725 2 1.1628000915798083e+01 2.7904335046858471e+00 7.6234915204988329e+00 1 0 1
667 1 6.9456495605715460e+00 6.9190330609928647e+00 1.1270451483572733e+01 -3 0 -3
129 2 1.1762287022047234e+01 5.1543867709715050e+00 2.6135024881075961e+00 -2 0 -1
844 1 7.7074268054695896e+00 -4.7762625471840825e-01 1.2075526827127621e+01 1 0 1
173 2 -4.7272937509595874e+00 6.1663929292232833e+00 1.5046843694438952e+01 0 0 -2
1664 2 2.8728671223773228e+00 7.8213417660254105e+00 1.3869512294144871e+01 -3 1 -1
531 2 8.0183512458306048e+00 -5.3199271275281346e-02 4.6132058120938435e+00 -1 0 0
560 2 8.1474566637199590e+00 -7.2594801187040758e-02 8.4548732886674802e+00 -2 0 1
462 2 7.7694786669140372e+00 3.9771053529211899e+00 1.1994170187814511e+01 -4 0 -2
651 2 5.7468651894349367e+00 8.6552976531163583e-01 4.5105624879372455e+00 -5 0 0
996 2 7.3079865096537091e+00 4.1020437691713560e+00 6.6560619247533745e+00 3 0 1
611 2 1.4268498962323152e+01 2.1219145986555876e-01 7.0138418796281288e+00 -1 0 2
539 2 1.1924488889719451e+00 -1.1246539255536077e+00 2.4868671712331811e+00 -4 0 -3
32 2 3.0638207181191541e+00 8.3007541834643810e+00 1.6339989482728082e+01 -4 0 -5
269 2 -1.5659443709149610e+00 8.7018136923412790e+00 1.4511392527041446e+01 2 0 -1
102 2 3.9696680488563563e+00 5.6382702729991481e+00 1.0525243565262986e+01 -1 0 -1
497 2 4.7537148606903141e+00 3.1888001096212459e+00 7.0757854322968194e+00 0 0 1
498 2 3.6471831618470518e+00 2.9489702918789664e+00 5.9848202020883257e+00 0 0 1
395 2 9.8322887602504299e+00 3.8611756261116774e+00 2.7665890054026345e+00 -3 0 -3
559 1 8.6192781448944515e+00 -5.8014009384644505e-01 7.7850679088096104e+00 -2 0 1
349 1 1.4423986203119037e+01 1.8121705527704344e+00 9.5501525573808721e-01 2 0 4
679 1 6.5557379177422099e+00 3.2276274171692449e+00 1.7972532660330085e+01 -3 0 -3
398 2 1.1869195755848247e+01 7.3579522552356504e+00 2.6086928799384839e+00 2 0 0
540 2 1.9706752527199469e+00 4.7513588935952367e-03 1.8550855506355071e+00 -4 0 -3
230 2 2.9476856956238584e+00 7.1801056574041899e-02 6.7199056480227739e+00 0 0 -2
321 2 1.1522089905132219e+01 -1.4292134736240092e-01 1.3780020992266962e+01 -4 0 -3
943 1 1.8787798165048595e+00 2.7458631573859362e+00 5.2365842129751679e+00 0 0 3
746 2 -3.3874960625295336e+00 9.0052436843028598e+00 1.1042397966704339e+01 -2 0 0
547 1 6.1481337744486044e+00 9.5856605546696763e+00 1.6667557805745222e+01 -3 0 -4
220 1 1.6601823086988867e+00 1.0030107442133295e+01 1.6581442121860654e+01 -2 0 -3
172 1 1.2431084545028618e+01 5.6801157123636834e+00 1.4578242700209881e+01 -1 0 -2
298 1 -5.4924594024909545e+00 3.1243678805790163e+00 1.7639368702667110e+01 -2 0 -2
680 2 5.6477541071600559e+00 2.8827750439448616e+00 1.7865324533774402e+01 -3 0 -3
971 2 2.8961957756394945e+00 1.0161694684520606e+01 9.8270089017582807e-01 0 0 1
856 1 -2.7517057982439499e+00 7.6814012676711432e+00 7.9436090413398137e+00 -1 0 -3
944 2 2.3016952839862239e+00 2.4477003582866130e+00 4.4146715702337707e+00 0 0 3
100 1 3.7814356219540333e+00 4.6797407482902651e+00 1.0437443938401252e+01 -1 0 -1
1667 2 4.8825697792803435e+00 4.5215382036804295e+00 1.4583414749204760e+01 -1 1 -2
352 1 1.1757391087223716e+01 8.3275000303721072e+00 1.0327120369941296e+01 -1 0 0
174 2 1.2725324733800550e+01 4.7892126321385415e+00 1.4708992142983311e+01 -1 0 -2
335 2 1.1235106763431343e+01 7.7920776026438556e+00 7.0082211748557679e+00 -2 0 -2
297 2 -2.7850768758737536e+00 9.7326136387584103e+00 1.8013202467288302e+01 2 0 2
428 2 1.2047741691368708e+01 8.3856546231603897e+00 1.3439997383959721e+01 -1 0 -1
460 1 8.5421791197891253e+00 4.6111949516460751e+00 1.2157627368813538e+01 -4 0 -2
607 1 3.2967340817533382e+00 2.7507043214508178e+00 2.8047542119038682e+00 -3 0 0
388 1 1.4106628918080546e+01 -5.4014703252176499e-03 5.0859315008874875e+00 -1 0 0
980 2 8.4029078266364223e+00 9.6575589889385824e+00 9.4382931458911745e+00 -2 0 0
4 1 1.3208027848311370e+00 9.5691824977176445e+00 6.0760115972946807e+00 1 0 0
595 1 1.3497645828089824e+00 5.2277382111571962e+00 3.7585868851268254e+00 3 0 -2
528 2 2.7077966257406678e+00 1.9568369179611547e+00 8.2583557326123671e+00 -2 0 -1
109 1 1.9445191908303610e+00 1.0931211803920959e+00 1.7089310449934430e+01 1 0 -4
615 2 -2.0860894023440482e+00 1.4518132751501867e+00 1.7600121988347961e+01 -2 0 -1
186 2 6.8025140718302390e+00 -8.0872281444999394e-01 3.4131288374682606e-01 -4 0 -5
461 2 8.3701213355692801e+00 4.7364035328774685e+00 1.3141781933817883e+01 -4 0 -2
599 2 -1.6449564582843603e+00 9.7440187244289600e-02 8.7154631829915239e+00 -3 0 1
408 2 6.3696573921161459e-01 2.7940005237530432e+00 9.7917496002495934e+00 -2 0 -2
274 1 7.6975656834235391e+00 -8.2334812749781294e-01 1.8887433515146274e+01 2 0 -1
182 2 1.1617339533715031e+01 6.7799974501007529e+00 4.9417911517308184e+00 -1 0 0
35 2 1.6152594279894867e+01 2.1728561891544547e+00 3.2262563060181684e+00 -2 0 0
548 2 5.3437720279990861e+00 9.1111773693700542e+00 1.6387969218110232e+01 -3 0 -4
459 2 1.6861598765866241e+01 -6.9364755653068788e-01 1.8254310094837469e+00 -3 0 -2
475 1 4.3098627780345282e+00 7.1892565528700487e+00 1.1147867031710787e+01 -1 0 2
68 2 9.4412477733979454e+00 7.8808836309590653e+00 1.8505279748425817e+01 -4 0 -3
526 1 3.1656330700413604e+00 1.1163285658373865e+00 8.1606982460675397e+00 -2 0 0
133 1 -1.8756257081993946e+00 3.0213541468737324e+00 7.6156273030806325e+00 1 0 -1
610 1 1.4640916476410702e+01 4.5248266415361238e-01 7.8518972543739549e+00 -1 0 2
675 2 -3.2648369820976115e+00 5.7656525118430464e+00 1.7076502930748568e+01 0 0 -4
251 2 4.4803155233600602e+00 9.5467762322230634e+00 8.6957842016409508e+00 -3 0 1
300 2 -4.7081382596029151e+00 3.3144079706404908e+00 1.7077300244729141e+01 -2 0 -2
255 2 9.3517754711795096e+00 1.0258700141830683e+01 1.6293359465720645e+01 -3 0 -3
782 2 -5.5423356244239530e+00 7.1632018513546054e+00 1.8614883854189188e+01 -2 0 -3
690 2 -1.5053377888055453e-01 5.0563333359229867e-01 6.5753807298571711e+00 -2 0 0
502 1 4.8499723963896315e+00 -7.1898419137050995e-01 9.9853874395001672e+00 0 0 -1
788 2 5.5626594801264444e+00 7.8606242056929609e+00 2.7488508341340530e+00 -2 0 0
113 2 7.7733562201003847e+00 1.8031011524691922e+00 1.4926641259142540e+01 -2 0 -1
687 2 1.6569298378741188e+00 -3.6484600291165403e-02 1.0649229141382239e+01 -3 0 0
33 2 3.5295595366068291e+00 6.9053639624863408e+00 1.6499464911456936e+01 -4 0 -5
457 1 -9.5506761403159546e-01 -7.8449322968617641e-01 2.7725574441799079e+00 -2 0 -2
962 2 1.4365567339642302e+00 -8.6630223802092376e-01 1.4169304506729699e+01 -3 0 -1
67 1 8.7422897678507105e+00 7.4997078556292163e+00 1.9047904554995270e+01 -4 0 -3
619 1 -5.1129750447106268e+00 1.0019057388703782e+01 1.6567028437361106e+01 -3 0 -1
114 2 6.5513768944548003e+00 1.0234018496438990e+00 1.4454040487437126e+01 -2 0 -1
425 2 1.2275099910619677e+01 1.8707890252888051e+00 3.8884300337751752e+00 -2 0 1
544 1 1.6590883878252463e+00 1.0580616744049860e+00 1.2105347866547220e+01 2 0 1
875 2 1.0099452148173210e+01 5.0092590969675905e+00 1.1245943614014674e+01 -3 0 1
1001 2 8.8566331472992559e+00 2.3642918865676981e+00 6.8075284567723378e+00 -1 0 1
496 1 4.5784976079879325e+00 3.2069993135719255e+00 6.1158709364743622e+00 0 0 1
655 1 3.4581914232552675e+00 6.9939552467967179e+00 1.3749863436174696e+01 -3 0 -1
337 1 2.9523822813830174e+00 5.9379807847178219e+00 1.5684232572033721e+00 -1 0 -1
735 2 5.5935172664703900e+00 1.0139152043236383e+01 6.7691034405865897e+00 -3 0 -1
221 2 8.8138217541076180e-01 9.4789612079339243e+00 1.6725209496098678e+01 -2 0 -3
516 2 1.1596463088113618e+01 1.0117476328739208e+01 1.0865736806155983e+01 -1 0 -1
949 1 -4.4188834544601212e+00 -1.5991303533065127e-01 1.7935579393154480e+01 -1 0 1
458 2 1.6494091688940038e+01 -5.9198759365665321e-02 3.2726654327092142e+00 -3 0 -2
641 2 -1.7367656833079970e+00 5.0108108975667598e+00 1.1050223322966646e+01 4 0 -1
110 2 2.0251299265316964e+00 5.7189238818400145e-01 1.6260211448794717e+01 1 0 -4
215 2 1.5968374368908320e+01 8.6545040053309990e+00 5.5445392368067372e+00 -1 0 -2
47 2 8.0719398092705426e+00 7.5294361969952384e+00 6.3120354360922155e+00 -3 0 0
207 2 4.8790909759797110e+00 5.6453309003268215e-01 1.1110785224242401e+01 3 0 0
808 1 7.1583148567108852e+00 4.5024516119525675e+00 4.9292327397913951e+00 -4 0 -1
279 2 9.1598808763685078e+00 7.3858251034159910e+00 8.9504048885636607e+00 -4 0 -1
577 1 2.6979983875615092e+00 5.4382103170703804e+00 1.6071522600673475e+01 0 0 0
21 2 3.1828030960818188e+00 8.3703089125837309e+00 1.8260773254198597e+01 -3 0 -4
1000 1 8.6956287936608732e+00 1.7520063045368137e+00 6.0401403948709032e+00 -1 0 1
294 2 1.3188459236047301e+01 2.7543002895977944e+00 1.2362613236595685e+01 0 0 -3
390 2 1.4527527485462322e+01 8.3377623288693226e-01 4.7927172817811670e+00 -1 0 0
747 2 -3.0536997709198341e+00 7.9582197102433891e+00 9.9900193536195268e+00 -2 0 0
521 2 8.3252654191428377e+00 1.5958106800299445e+00 9.6535045044198764e+00 -5 0 -2
813 2 1.1357078854474743e+01 2.9451506843655464e+00 1.3413302122654366e+01 -2 0 -1
912 2 1.0206282677774755e+01 1.5087587029044456e+00 5.1761683713357245e+00 -2 0 1
745 1 -3.5665902072073101e+00 8.0889077191182590e+00 1.0792412092183884e+01 -2 0 0
20 2 2.2085430653986080e+00 9.5109051080415306e+00 1.8917503805954670e+01 -3 0 -4
771 2 -3.1483243184694851e+00 4.9229059668859936e+00 9.4446192987586652e+00 1 0 -3
857 2 1.4526867746861395e+01 8.2514971969371391e+00 7.4655075901437504e+00 -2 0 -3
809 2 7.0906751305178375e+00 5.2866785280065498e+00 4.2881886830364850e+00 -4 0 -1
866 2 9.7546112934928786e+00 5.3567741235670860e+00 1.9322365179793857e-01 -3 0 0
94 1 -1.2621686019077694e+00 5.5024008172553778e+00 6.5315216342004199e+00 -1 0 -1
225 2 5.9281536677464697e+00 6.8441176128460928e+00 6.8278105133420808e-01 -2 0 -1
770 2 1.3612888993992666e+01 5.0944640801382866e+00 8.3819029526527711e+00 0 0 -3
123 2 7.1328000229697475e+00 5.4809558676202492e+00 1.4886643999302938e+01 -2 0 -1
440 2 -4.2546802467788503e-01 5.2596667455547719e+00 1.5824257411644453e+01 -2 0 -2
383 2 1.7565742811822471e+01 5.6376590564128328e+00 8.4897472682794362e-01 -2 0 1
229 1 2.6435112591369920e+00 -7.2219117457082338e-01 6.2494282062430191e+00 0 0 -2
499 1 -1.8718401450020066e+00 1.6238572957557600e+00 1.3274159340965470e+01 1 0 1
910 1 1.1063073796719014e+01 1.1184132287368849e+00 4.9147541004798914e+00 -2 0 1
546 2 9.7699578725911351e-01 1.6936699453660196e+00 1.1704215793584272e+01 2 0 1
951 2 -3.5972523769790734e+00 2.1547056065878856e-01 1.8324901276839064e+01 -1 0 1
963 2 2.6230157791429543e+00 4.7160026011189737e-02 1.4486767786953983e+01 -3 0 -1
612 2 1.4064516956950451e+01 1.9445211461283440e-01 8.6129935212604014e+00 -1 0 1
674 2 -3.7874353928421711e+00 7.0868142670021843e+00 1.7407677839919881e+01 0 0 -4
121 1 7.9828745366808604e+00 4.9948175995920794e+00 1.4714966620426949e+01 -2 0 -1
911 2 1.0932113228620322e+01 1.6930690976896190e-01 4.9225006044142541e+00 -2 0 1
424 1 1.2810828149899402e+01 2.2733042965886621e+00 3.1942050522611019e+00 -2 0 1
811 1 1.2146083730219225e+01 3.1758659358859855e+00 1.3891186220366482e+01 -2 0 -1