LAMMPS data file via write_data, version 3 Mar 2020, timestep = 1000000

1008 atoms
2 atom types

2.7397888338985865e-01 1.8125576116602673e+01 xlo xhi
6.5884980811048877e-02 2.2504504019181638e+01 ylo yhi
2.3785577239104683e-01 1.9267860227603592e+01 zlo zhi
2.0785768849559522e-01 -6.6006627077472917e+00 -4.0097642069041949e-02 xy xz yz

Masses

1 16
2 2

Atoms # atomic

1 1 6.5949740146877751e+00 1.1203596639160052e+00 5.0006491867259424e+00 0 0 0
293 2 1.2578888829376767e+01 1.0724893337039633e+01 7.1309556009559030e+00 0 0 0
3 2 6.6487470555357859e+00 1.4370229989492616e+00 4.1232473645834826e+00 0 0 0
4 1 3.6631126257143674e+00 1.0878495634256595e+00 5.2058657067433014e+00 0 0 0
777 2 6.3718777825371475e+00 1.1045557240558475e+01 9.6938769546793075e+00 0 0 0
6 2 3.5370141478570480e+00 1.7085110180655141e+00 5.9774915606942152e+00 0 0 0
7 1 -4.9722393643446394e-01 6.2802356628809104e+00 5.0402292478054784e+00 0 0 0
8 2 -2.6300331533735499e-01 5.8858976290565614e+00 5.9470320546325777e+00 0 0 0
9 2 -1.1602068827536927e+00 6.9891060443428517e+00 5.2321426692151389e+00 0 0 0
10 1 2.5588750972229430e+00 6.6275167101391412e+00 4.8638511870121448e+00 0 0 0
11 2 1.6235230792466249e+00 6.9638347913509300e+00 4.8618480103496697e+00 0 0 0
12 2 3.1051266465424581e+00 7.3606284196703058e+00 5.1369548378590002e+00 0 0 0
23 2 1.1525927746201425e+00 3.2457611691844463e+00 9.5828354295815803e+00 0 0 0
14 2 4.8076362151250551e+00 5.0138939151380475e+00 8.3148765629605226e+00 0 0 0
145 1 1.7227447288798540e+01 7.0420208378110978e+00 1.6773452707118839e+00 0 0 0
79 1 7.1769614004289384e+00 1.2240917427464921e+00 3.1600405241556923e-01 0 0 1
18 2 5.5009594899784986e+00 5.2904462187187598e+00 1.3112263249058913e+00 0 0 0
154 1 1.2635030843087147e+01 3.6579897576528403e-01 1.5288415503110047e+00 0 0 0
254 2 1.5536342740445656e+01 8.7405449599338372e+00 6.0799051358040241e+00 0 0 0
21 2 1.1206940898815994e+00 2.3133466258189954e+00 1.2626271623201020e+00 0 0 0
221 2 4.5003964806520216e+00 1.0672507036590336e+01 3.0156729064423970e+00 0 0 0
836 2 1.3222677795422653e+01 9.5933551214582256e+00 9.1160565826359239e+00 0 0 0
273 2 1.0929648306480402e+01 1.0367097633183731e+01 2.8363225764275546e-01 0 0 1
25 1 4.7571551022670295e+00 6.3412339786428902e+00 7.1427794182635784e+00 0 0 0
26 2 5.4955452601949881e+00 6.7411238155347757e+00 7.6416879732439842e+00 0 0 0
27 2 3.9057603638338256e+00 6.6061404649130138e+00 7.5138386054434454e+00 0 0 0
28 1 5.9551436881965509e+00 6.3810406153439967e+00 2.7227435800406612e+00 0 0 0
29 2 5.8862769942479707e+00 6.2570613606735179e+00 3.7102242294715917e+00 0 0 0
30 2 5.4883574496793592e+00 7.1881712646142768e+00 2.5533447775454645e+00 0 0 0
31 1 1.5010046573848412e+00 1.1614136581168764e+00 2.6086171634372719e+00 0 0 0
32 2 2.4158186501235148e+00 9.9686140710191207e-01 2.4035706796305822e+00 0 0 0
33 2 1.4105486664375217e+00 1.4945358765318701e+00 3.5345792340936453e+00 0 0 0
34 1 1.3892200427739398e-01 9.2707148421513486e-01 7.1713396591478231e+00 0 0 0
585 2 3.5072382153382153e+00 2.0728411847721016e+00 8.6314228991564725e+00 0 0 0
36 2 3.7001832879800789e-01 1.3432690561961764e+00 8.0017609822011124e+00 0 0 0
37 1 6.5345726338661132e+00 2.3261489278450398e+00 2.4791083741488324e+00 0 0 0
38 2 5.6389349303971414e+00 2.6828131168748341e+00 2.5695192885908877e+00 0 0 0
39 2 7.1081636897645550e+00 3.0897277142738679e+00 2.6310996787055680e+00 0 0 0
40 1 3.7086127648886102e+00 2.6889790456428870e+00 7.1607632471136942e+00 0 0 0
41 2 4.6052979082578229e+00 3.0325511429930483e+00 7.2076474108617301e+00 0 0 0
42 2 3.1157487647042976e+00 3.4281454899907753e+00 6.9267920398603353e+00 0 0 0
43 1 -2.0251357939777037e-01 4.9692400786476760e+00 7.4557653852124979e+00 0 0 0
44 2 -9.1555659319001692e-01 4.3322101063573362e+00 7.4347790569158132e+00 0 0 0
45 2 -4.4351048502863133e-01 5.5532732109022653e+00 8.2251948711827652e+00 0 0 0
46 1 2.2263719811107627e+00 4.9920330955124079e+00 2.6136875203940075e+00 0 0 0
47 2 1.3215866410297077e+00 4.6968938067316524e+00 2.7403395635252994e+00 0 0 0
48 2 2.4746562568336765e+00 5.5555009489881844e+00 3.3433477262044153e+00 0 0 0
49 1 6.5166407658183161e+00 3.3127947619192781e+00 6.8583451640956676e+00 0 0 0
50 2 6.3118514808252240e+00 4.0559128332355456e+00 6.1653253674609045e+00 0 0 0
51 2 6.7462650167841955e+00 2.5938780683174634e+00 6.2403259334864671e+00 0 0 0
52 1 4.3534103666978234e+00 3.3258311548321542e+00 3.4455878419417840e+00 0 0 0
53 2 3.5734458272337006e+00 3.8046046389784234e+00 3.1816566471097318e+00 0 0 0
54 2 4.1347934968259903e+00 2.5914701361006536e+00 4.0645060906760575e+00 0 0 0
55 1 -5.1934305608606435e-01 4.2420466797522502e+00 3.3001274577769073e+00 0 0 0
56 2 -5.7024578760080535e-01 5.0880506100585139e+00 3.7510296778868444e+00 0 0 0
57 2 -1.8531235030141002e-01 3.6346827674407045e+00 4.0215305174465028e+00 0 0 0
58 1 2.0846568276640158e+00 4.3953685940239193e+00 6.3150053120932430e+00 0 0 0
59 2 2.3191194231893428e+00 5.2366484228796359e+00 5.8260359235970585e+00 0 0 0
60 2 1.2886875264873821e+00 4.6968023418562099e+00 6.8779309406275457e+00 0 0 0
61 1 8.2732010566356102e+00 7.3614641554696654e+00 1.4630480881429471e+00 0 0 0
62 2 7.6038306762876537e+00 6.8534127908343585e+00 1.9976720269292416e+00 0 0 0
63 2 8.5752960161718601e+00 6.7264782647235704e+00 8.2288641941478236e-01 0 0 0
64 1 2.5738503512901820e+00 7.0787929863291277e+00 8.4017460405420454e+00 0 0 0
65 2 1.8750293518306673e+00 7.6543164755657207e+00 8.0548795322365194e+00 0 0 0
66 2 2.9055354692851494e+00 7.6016753772228460e+00 9.1846178945316215e+00 0 0 0
5 2 4.6625953147696499e+00 9.4175652837260471e-01 5.2831905458252981e+00 0 0 0
68 2 1.5201102628415649e+01 1.0701764710334809e+00 8.6254972784426780e+00 -1 0 0
15 2 4.0453475119925981e+00 4.4009374342681324e+00 9.5761769088533253e+00 0 0 0
72 2 4.0014454067597569e+00 1.2138534770984521e+00 8.6058335124696961e-01 0 0 0
73 1 5.6490998082290247e+00 5.2535417125507031e+00 5.0530997931543569e+00 0 0 0
74 2 5.1476012858523728e+00 5.7107409593603080e+00 5.7555769770295848e+00 0 0 0
75 2 5.1711990004067196e+00 4.6558277181171537e+00 4.4173280876883245e+00 0 0 0
76 1 6.6898078207520428e-01 2.5872147343356486e+00 4.9996486025679667e+00 0 0 0
77 2 3.8882882769726224e-01 2.0515145228105598e+00 5.7653766470020980e+00 0 0 0
78 2 1.2374262705749546e+00 3.3129174755630340e+00 5.2996907626376712e+00 0 0 0
2 2 7.2943217946623857e+00 4.2757657175987873e-01 5.1189028227614450e+00 0 0 0
152 2 7.7355225231237075e+00 8.8034763768541568e-01 7.4593848636724607e+00 0 0 0
304 1 1.2884810112244940e+01 1.0665530352375981e+01 3.7131703473446653e+00 0 0 0
85 1 1.5575943201016782e+01 1.1566743681076908e+00 4.8492414748689789e+00 0 0 0
87 2 1.5640663598993230e+01 1.5478681996399417e+00 3.9304338245876282e+00 0 0 0
88 1 1.2996895220607158e+01 7.8984198628996505e-01 5.0985249762842670e+00 0 0 0
89 2 1.2710232572897947e+01 1.4333288913743609e+00 4.4768987751638001e+00 0 0 0
153 2 6.7932211182400692e+00 1.2986103792209349e+00 8.6902096056160669e+00 0 0 0
91 1 8.2841449097378934e+00 6.1800256031061362e+00 5.0971429923048754e+00 0 0 0
92 2 8.1119960217248881e+00 5.4456087336259724e+00 4.4878871210903206e+00 0 0 0
93 2 9.2475021968138531e+00 6.3321281089147083e+00 4.9804685587039090e+00 0 0 0
94 1 1.1083433470474677e+01 6.1547228436220296e+00 4.7396157897200695e+00 0 0 0
95 2 1.1581048974590763e+01 6.9580170830752639e+00 4.9339082751011034e+00 0 0 0
96 2 1.1213069164514250e+01 5.4802110058198172e+00 5.4623786572919624e+00 0 0 0
151 1 6.9919286679858841e+00 5.7941951728960761e-01 7.9824028792435362e+00 0 0 0
146 2 1.7415589170062351e+01 6.2699677143481765e+00 1.1038221150018979e+00 0 0 0
583 1 3.5219321935706720e+00 1.3661637037445105e+00 9.4152806515014849e+00 0 0 0
101 2 1.4624384772757221e+01 5.0563410889560236e+00 1.3840816699383272e+00 0 0 0
166 1 1.1702086628240979e+01 6.0763003915623717e+00 2.6026969784915333e-01 0 0 1
671 2 8.5638581294543634e+00 5.5354366535685084e+00 9.2598279386829887e+00 0 0 0
24 2 -3.3030644434633194e-01 2.7232911822711450e+00 9.4108080686774258e+00 0 0 0
67 1 -2.2718226629608447e+00 2.8294161365045789e-01 8.1024331556091838e+00 0 0 0
109 1 1.3578475939066902e+01 6.3429998468202813e+00 7.2006716563540731e+00 0 0 0
110 2 1.3527602259829703e+01 5.6572754608368934e+00 7.8896840852828891e+00 0 0 0
111 2 1.2686435286218884e+01 6.7469454568615124e+00 7.2372167530310554e+00 0 0 0
112 1 1.4756343334615108e+01 6.1356554122310341e+00 2.7390503273725089e+00 0 0 0
113 2 1.4073783848966999e+01 6.8112007882735366e+00 2.4643034907655719e+00 0 0 0
114 2 1.5587851184604810e+01 6.5821606296731705e+00 2.5118985533143778e+00 0 0 0
115 1 1.0347507641806271e+01 1.2475293410465775e+00 2.4428745712106124e+00 0 0 0
116 2 1.0193349164517143e+01 2.0079719243808358e+00 1.8796542167275800e+00 0 0 0
103 1 1.0045225471612492e+01 2.9944841912241627e+00 3.7386805360603076e-01 0 0 0
118 1 9.4208065867933506e+00 1.2517309066831179e+00 7.3072156091576446e+00 0 0 0
119 2 9.5073507718104331e+00 2.0560281928141615e+00 7.8536305768685439e+00 0 0 0
120 2 9.3964066573126814e+00 1.6070767914248567e+00 6.4291699763089269e+00 0 0 0
121 1 1.5216065213417480e+01 2.5314620642515364e+00 2.6059149512009609e+00 0 0 0
122 2 1.5888027437802364e+01 3.2949893921758857e+00 2.6700725565301089e+00 0 0 0
123 2 1.5441029334123284e+01 2.1584131575767644e+00 1.6736110383078666e+00 0 0 0
124 1 1.2988209534788579e+01 2.3764392695997700e+00 7.3030850813278851e+00 0 0 0
125 2 1.3909266265959449e+01 2.7653419800713555e+00 7.2079759055678867e+00 0 0 0
126 2 1.3040506695042673e+01 1.6189240883204077e+00 6.6596356615422652e+00 0 0 0
127 1 8.4884233490258953e+00 4.8136702679307444e+00 7.5463280479234713e+00 0 0 0
128 2 7.8560210388256859e+00 4.0546305665958684e+00 7.3752735590465202e+00 0 0 0
129 2 8.2215577971147162e+00 5.3530735281560906e+00 6.7631444503327378e+00 0 0 0
130 1 1.0873374845599150e+01 4.8341391981355253e+00 2.5986177344676915e+00 0 0 0
131 2 1.1382228250538835e+01 4.0576383021475291e+00 2.8214684219367383e+00 0 0 0
132 2 1.1013314729339314e+01 5.4089680411618284e+00 3.3840538260345512e+00 0 0 0
134 2 1.5259882845817057e+01 3.9290922524101006e+00 6.0636277381826122e+00 0 0 0
136 1 1.2799513621526263e+01 3.0621562277669865e+00 3.6774062052629510e+00 0 0 0
137 2 1.3142808646770144e+01 3.5812189438122388e+00 4.4191767179973143e+00 0 0 0
138 2 1.3563728669917921e+01 3.0491910347891942e+00 2.9989712942458762e+00 0 0 0
139 1 8.3375853165170213e+00 4.0155934072683905e+00 3.3993780609395232e+00 0 0 0
140 2 9.0576616796870653e+00 4.3219093927485268e+00 2.8560004158624097e+00 0 0 0
141 2 8.7225277501932794e+00 3.3318212152830653e+00 4.0335593546972000e+00 0 0 0
142 1 1.1048876132092376e+01 4.1622682201487997e+00 6.3988303817969392e+00 0 0 0
143 2 1.1756846236696779e+01 3.6423568657996195e+00 6.8323022934906419e+00 0 0 0
144 2 1.0202717213119852e+01 4.3099498033899541e+00 6.9616441427779732e+00 0 0 0
147 2 1.7014846529191242e+01 7.7810586456973532e+00 1.1013713262864426e+00 0 0 0
148 1 1.1188714176353002e+01 7.2968469112967762e+00 8.2990075998362887e+00 0 0 0
149 2 1.1044110298950384e+01 6.4071078356357098e+00 8.7393601573624746e+00 0 0 0
150 2 1.1673827816143111e+01 7.7932548565305817e+00 8.9964776190562397e+00 0 0 0
165 2 1.6481929155900449e+01 1.0095361109853513e+00 6.2930641254908881e-01 0 0 0
780 2 1.3005233170729914e+01 9.5079812910944881e+00 9.7233677190209533e-01 0 0 0
224 2 -1.0752214532205207e-01 1.0762465052244540e+01 4.4752987566951630e+00 0 0 0
135 2 1.5626209429813242e+01 2.4055418994219937e+00 6.0830185762574711e+00 0 0 0
155 2 1.2905298728905045e+01 1.1700253996751229e+00 1.0770262448410848e+00 0 0 0
290 2 1.5994864733066532e+01 1.0531799785483512e+01 3.0576273291730391e+00 0 0 0
157 1 1.4079103379016612e+01 4.8894094537929709e+00 5.0584770253088802e+00 0 0 0
158 2 1.4308249602002284e+01 5.1889176337548300e+00 4.1957889705604119e+00 0 0 0
159 2 1.3904291306204287e+01 5.5968683862566220e+00 5.7303923683785358e+00 0 0 0
160 1 9.7518870439647394e+00 2.1994025565727644e+00 4.8459800088881728e+00 0 0 0
161 2 1.0373926132596957e+01 2.8852143345544521e+00 5.1732717410581319e+00 0 0 0
162 2 1.0091662946593191e+01 1.7426965565137609e+00 4.0381936573385291e+00 0 0 0
521 2 2.0881531238532962e+00 5.5508816637044740e+00 9.1682783667580114e+00 0 0 0
248 2 7.6123488819834968e+00 8.8383378868169995e+00 3.9079463560594563e-01 0 0 0
217 1 6.5516443562886568e+00 1.0753943991236499e+01 6.6631038323096128e+00 0 0 0
169 1 6.7043556315119899e+00 8.5148471686664635e+00 4.8478089993294189e+00 0 0 0
170 2 7.2600053791116306e+00 7.7216230834393835e+00 5.0184578496903285e+00 0 0 0
171 2 6.7715353793947433e+00 9.0467043746458149e+00 5.6785893853920326e+00 0 0 0
172 1 3.8697698394208624e+00 8.7671194710705631e+00 5.2383624650415523e+00 0 0 0
173 2 3.6298556962824291e+00 9.4887988143701580e+00 4.6358445214059980e+00 0 0 0
174 2 4.7900967953288340e+00 8.5754200829296003e+00 4.9701766424936311e+00 0 0 0
612 2 1.2246116372132585e+01 3.0826749953809718e+00 8.0943591624330247e-01 0 0 0
237 2 1.4874859840977358e+01 7.3655202933717874e+00 7.7420533986973394e+00 0 0 0
220 1 3.7907139626391930e+00 1.1006761369383453e+01 3.6723768981979843e+00 0 0 0
192 2 4.8842632192256064e-01 9.8486532799839370e+00 8.9336275084211323e+00 0 0 0
199 1 1.3480703882719631e+00 8.8554322922951432e+00 2.7204677901352587e+00 0 0 0
200 2 1.2428900437193353e+00 9.4727057456006669e+00 1.9713174924734151e+00 0 0 0
201 2 7.5974624456572704e-01 8.1469079920126326e+00 2.4347124060275687e+00 0 0 0
202 1 3.6326248187192034e-01 8.5918108184675823e+00 7.6363647944810715e+00 0 0 0
203 2 -6.3324745273166982e-01 8.5081131120954669e+00 7.6516106609720520e+00 0 0 0
204 2 6.2954944973682858e-01 8.8697292234551011e+00 6.6534335455590625e+00 0 0 0
205 1 6.3459772302692015e+00 1.0448618680499791e+01 2.6675010074079046e+00 0 0 0
206 2 6.7602887800537186e+00 9.7711379311980018e+00 3.1857247881210351e+00 0 0 0
207 2 6.5598102093685364e+00 1.0182800419655013e+01 1.7368951045419316e+00 0 0 0
208 1 3.8611898700577223e+00 1.0175849627603659e+01 7.8651614432554657e+00 0 0 0
35 2 -7.8083018711285868e-01 6.2874401931074675e-01 7.2985608290998991e+00 0 0 0
210 2 3.9149268779172708e+00 9.4374949866045181e+00 7.2556156827685472e+00 0 0 0
90 2 1.3987261451622205e+01 8.3723542974851006e-01 4.9489020842124791e+00 0 0 0
84 2 3.0823204889665146e+00 6.5207256542121916e+00 5.4698816817166995e-01 0 0 0
330 2 9.1360465292362001e+00 1.0434586262686524e+01 4.7298617023657208e+00 0 0 0
209 2 3.3662753244824866e+00 1.0884529716944799e+01 7.3692008200405139e+00 0 0 0
305 2 1.2100890763099754e+01 1.0819195346435848e+01 3.1693581076777422e+00 0 0 0
235 1 -2.2022154167482570e+00 7.8882817198372139e+00 8.0987380092465777e+00 0 0 0
236 2 -2.4945323776502795e+00 8.6827295990037641e+00 8.5851824883633583e+00 0 0 0
238 1 3.7490058994701876e+00 7.9743555950226961e+00 1.5610818910658888e+00 0 0 0
239 2 3.0327977603936604e+00 8.3088022219210487e+00 2.1537809391469702e+00 0 0 0
240 2 3.9582917379883900e+00 8.7457426209318356e+00 9.9349696965021972e-01 0 0 0
244 1 9.6127958670671276e-01 9.7030064495894699e+00 5.3496500439227805e+00 0 0 0
245 2 1.2132263984428220e+00 9.2929873516444985e+00 4.5149400839245315e+00 0 0 0
246 2 1.6367348365014460e+00 1.0347554361816830e+01 5.5521437650989602e+00 0 0 0
19 1 1.1050152301703435e+00 2.5279486986849085e+00 3.2716927114285665e-01 0 0 0
253 1 1.5407362166717178e+01 8.3279422979822257e+00 5.2370955941074424e+00 0 0 0
255 2 1.5613863686518290e+01 9.0075043553962342e+00 4.5593167308335403e+00 0 0 0
256 1 1.2735771362529075e+01 8.4686546264905722e+00 5.2513745532666380e+00 0 0 0
257 2 1.3728650272046838e+01 8.3294225243448263e+00 5.2098570654541003e+00 0 0 0
258 2 1.2567216195025033e+01 9.3035408478573576e+00 4.7097182557984514e+00 0 0 0
97 1 1.3607707580777408e+01 4.6612033049206856e+00 9.1635033615888393e+00 0 0 0
272 2 1.0093975202098841e+01 9.7611356590465963e+00 1.4839225948817496e+00 0 0 0
668 2 1.2797089766927920e+01 1.7212737793593111e+00 9.0015954916483132e+00 0 0 0
276 2 9.6714826921128534e+00 1.0083312820248603e+01 8.8675451297560137e+00 0 0 0
283 1 1.0333862327594213e+01 8.6186100570616677e+00 2.8290288137847552e+00 0 0 0
284 2 1.0100688798810520e+01 9.0426555333986514e+00 3.7422592798849372e+00 0 0 0
285 2 9.6650978649018526e+00 7.9040329526510442e+00 2.6762153662433961e+00 0 0 0
286 1 9.1780401404087861e+00 9.1383320668934775e+00 7.4669421354151018e+00 0 0 0
287 2 9.8140690132309558e+00 8.4436423679389154e+00 7.7357957439334193e+00 0 0 0
288 2 8.2529268344319693e+00 8.7535488166121223e+00 7.5425135796629466e+00 0 0 0
289 1 1.5284257179879051e+01 9.8951697761003938e+00 2.8910882307369592e+00 0 0 0
22 1 6.3100249573999312e-01 2.4623223932184768e+00 9.2827296538687118e+00 0 0 0
291 2 1.5342140513767154e+01 9.4414375677238009e+00 2.0016358795128402e+00 0 0 0
292 1 1.3343763538542174e+01 1.0092172075091856e+01 7.2821961869503085e+00 0 0 0
80 2 6.6670035110308508e+00 1.6784785288151407e+00 1.0624214832813563e+00 0 0 0
294 2 1.3034910960231588e+01 9.3122483149824777e+00 6.7081197321199060e+00 0 0 0
167 2 1.1425737717228154e+01 5.6184892236672406e+00 1.1359430614513184e+00 0 0 0
584 2 2.8420331358282893e+00 7.0770496212765566e-01 9.2063664647698005e+00 0 0 0
306 2 1.3697730533700128e+01 1.0338709196666420e+01 3.2567400904951747e+00 0 0 0
610 1 1.3013441318191415e+01 2.7472484050245671e+00 3.2130702575469916e-01 0 0 1
319 1 6.7053738358047266e+00 7.7263764417600909e+00 8.2117712849508813e+00 0 0 0
320 2 6.4615177656854801e+00 8.4839884606524993e+00 8.7974899320242219e+00 0 0 0
321 2 7.1594593276820602e+00 7.0851291619328505e+00 8.7956145628921316e+00 0 0 0
322 1 1.2842771519762632e+01 7.9645331370747474e+00 1.8853652401767504e+00 0 0 0
323 2 1.1990468203703655e+01 8.1838220297426183e+00 2.3775498838187725e+00 0 0 0
324 2 1.2534187966266366e+01 7.2948480081259959e+00 1.2364190541151334e+00 0 0 0
328 1 9.9009788734463662e+00 9.8963664907509781e+00 5.0956929243242781e+00 0 0 0
329 2 9.5604644521830835e+00 9.4723423572413878e+00 6.0069780434407303e+00 0 0 0
13 1 4.8964262491117516e+00 4.4144505982464661e+00 9.1332545289729357e+00 0 0 0
331 1 1.5902484796459330e+01 8.8298145077959447e+00 3.7031271624202183e-01 0 0 0
133 1 1.5472325782248877e+01 3.2026139149366433e+00 6.7192455694234230e+00 0 0 0
83 2 2.0869280678475590e+00 5.4315532247526264e+00 7.1796735387553612e-01 0 0 0
156 2 1.1748156856194994e+01 6.4299863111689803e-01 1.9530883713532641e+00 0 0 0
302 2 1.4861094253212668e+01 1.0628490115637709e+01 6.9385998681325178e+00 0 0 0
520 1 2.2034263333686650e+00 4.6866959315088081e+00 9.6705447892030829e+00 0 0 0
301 1 1.5678240409112494e+01 1.1075758615419012e+01 6.5810837859491800e+00 0 0 0
587 2 -1.0484076807510856e+00 7.2304838178110185e+00 9.3005812875604370e+00 0 0 0
70 1 3.9278322148669971e+00 4.5118215976367826e-01 1.4614449200596351e+00 0 0 0
117 2 9.5824601829243026e+00 6.2237951550560533e-01 2.2656101782353271e+00 0 0 0
586 1 -4.8644004962621334e-01 6.5947283000023047e+00 9.7447123694052564e+00 0 0 0
753 2 4.0097742424056770e+00 9.2889147602837046e+00 9.4037492986772460e+00 0 0 0
219 2 5.9705376735090230e+00 1.0790349982746331e+01 7.4414073617188050e+00 0 0 0
608 2 6.1505224532151193e+00 3.2666551802417105e+00 9.6404623186563878e+00 0 0 0
187 1 1.1607454168397755e+00 1.0141290483335885e+01 4.7906777499600972e-01 0 0 0
523 1 -2.3436409543970425e+00 2.7762154607815281e+00 9.6272963079767173e+00 0 0 0
16 1 5.6524240331074171e+00 4.9976618413998413e+00 4.2240777509505717e-01 0 0 0
482 2 6.6528902473175500e-02 1.2049564870921280e-01 2.1424089593217124e+00 0 0 0
311 2 1.0883521774570154e+01 1.1010630449918031e+01 5.9173221276684620e+00 0 0 0
691 1 -2.0654830989532145e+00 1.0038005259275868e+01 9.7142096928153645e+00 0 0 0
100 1 1.4789356268320146e+01 4.7617833623867583e+00 3.9594021914568328e-01 0 0 0
86 2 1.6171106847360541e+01 3.8955247267613646e-01 4.8081608321897509e+00 0 0 0
271 1 1.0066804943938168e+01 1.0176945332664916e+01 6.1591122539824628e-01 0 0 0
399 2 7.8997693129690960e+00 2.2199421003431102e-01 1.2957926852113670e+00 0 0 0
218 2 7.4402948197714691e+00 1.1065011993804973e+01 6.9640446187009895e+00 0 0 0
99 2 1.2673978909762708e+01 4.5924995935266608e+00 9.4130917838601000e+00 0 0 0
693 2 -1.1421100535842161e+00 1.0372919393746280e+01 9.6950874696775706e+00 0 0 0
524 2 1.4800172609541193e+01 3.3590092132045672e+00 9.3116935057248540e+00 -1 0 0
106 1 9.4662926943124983e+00 2.8187811280926081e+00 9.7336371740943459e+00 0 0 0
17 2 5.0876265467379769e+00 4.2278113563190827e+00 2.8582674411739928e-01 0 0 0
602 2 9.7686732441160551e+00 4.3275397087279277e+00 1.9129162956875909e+01 0 0 -1
752 2 3.6267155924569408e+00 9.1270038233517425e+00 1.0922040683614719e+01 0 0 0
274 1 9.9140878376812189e+00 1.0285773627447819e+01 9.7894499726890221e+00 0 0 0
837 2 1.2500176178502116e+01 9.5253020745934354e+00 1.0563554244916570e+01 0 0 0
725 2 5.6149811369494707e-02 1.1106065102440311e+01 1.2637393645931891e+01 0 0 0
607 1 6.8078979818612728e+00 2.6299564882521813e+00 9.8741685163742350e+00 0 0 0
164 2 8.6375148927479390e+00 1.0439484567071555e+00 1.8730522121354323e+01 0 0 0
794 2 1.2872513171341218e+01 1.0744576028077356e+01 1.2515273993770787e+01 0 0 0
808 1 9.8758046065294920e+00 1.0660901116516879e+01 1.3202715631823981e+01 0 0 0
810 2 9.1213104977831350e+00 1.1175159678894927e+01 1.2842858077066769e+01 0 0 0
694 1 -2.8658523870976520e+00 1.0017105776846032e+01 1.8896340993474386e+01 0 0 0
517 1 2.0403623138595872e+00 5.2428053978836200e+00 1.8882428359890881e+01 0 0 0
812 2 4.6324450361422977e+00 1.1258724583321813e+01 1.2540846849764419e+01 0 0 0
834 2 5.9545880975405829e+00 1.0452290364602883e+01 1.4399847243709363e+01 0 0 0
573 2 1.1532000219321262e+01 1.0665321055642651e-01 1.7444529708265264e+01 0 0 0
571 1 -5.5200712535076590e+00 5.7610790903573073e-01 1.7689793533246746e+01 0 0 0
574 1 6.3113853573036494e-01 5.0148159538636961e-01 1.1246241431489016e+01 0 0 0
81 2 1.3785961064105123e-02 5.3364745552245907e-01 1.8906647001443890e+01 0 0 0
505 1 3.3243168038242672e+00 1.4153769598942578e+00 1.4308254610550248e+01 0 0 0
506 2 3.6908500141597855e+00 2.1317379330514483e+00 1.4922491274198618e+01 0 0 0
191 2 1.1069991755695603e+00 9.6659963215855704e+00 1.0230460472906032e+01 0 0 0
508 1 4.9540219886532544e-01 1.3973996560394959e+00 1.4585109353199361e+01 0 0 0
807 2 1.2692774179263168e+01 1.0151229032777461e+01 1.5365587790351787e+01 0 0 0
510 2 1.3402070565309163e+00 1.0956447642821845e+00 1.4239538314406261e+01 0 0 0
511 1 -3.8481131427275646e+00 6.4031992667920816e+00 1.4493665157404688e+01 0 0 0
512 2 -3.8310436752731958e+00 5.7194821101590163e+00 1.3781164794187063e+01 0 0 0
513 2 -3.4995851786117886e+00 5.8346346597677039e+00 1.5240780998733898e+01 0 0 0
514 1 -1.0379731194942412e+00 6.7274379480581699e+00 1.4533594288650724e+01 0 0 0
515 2 -9.5457218818541856e-01 5.9523762704551935e+00 1.5117550238666768e+01 0 0 0
516 2 -2.0090651409199545e+00 6.8851643581782902e+00 1.4474625262371619e+01 0 0 0
509 2 -5.3911827200480822e-02 6.2950312824307275e-01 1.4553886803608972e+01 0 0 0
519 2 1.9385092352078761e+00 5.5358522505695449e+00 1.7944222117397821e+01 0 0 0
507 2 3.9109285827196922e+00 6.3868589475806159e-01 1.4414763241371571e+01 0 0 0
522 2 2.3777587891629213e+00 5.0062028939933043e+00 1.0553694772520869e+01 0 0 0
105 2 3.1631418276775634e+00 2.2015252705144248e+00 1.8884827278067615e+01 0 0 0
906 2 -1.4563044623039625e+00 2.1625546100185919e-01 1.7138614062952421e+01 0 0 0
525 2 -2.7001908359133653e+00 2.2770010857539233e+00 1.0396220729791924e+01 0 0 0
658 1 9.4606967919011744e+00 5.0024239647964774e-01 1.1418314515804228e+01 0 0 0
527 2 -2.3948794096334871e+00 2.2631119275607459e+00 1.8218660393986330e+01 0 0 0
529 1 1.3411358218036362e+00 6.3468294124412248e+00 1.6671651122685024e+01 0 0 0
530 2 1.5402618047308980e+00 5.7635690185913537e+00 1.5884578195553914e+01 0 0 0
531 2 3.9920632782287591e-01 6.6457313898769383e+00 1.6816232785892137e+01 0 0 0
532 1 2.9076653838667905e+00 5.8616855623379758e+00 1.2136852994611269e+01 0 0 0
533 2 3.8230553034445407e+00 6.0793902033002425e+00 1.1945591444215587e+01 0 0 0
534 2 2.8351797444714224e+00 5.5110155696921437e+00 1.3036248585579992e+01 0 0 0
535 1 -2.1524475435977157e+00 1.1940448731684827e+00 1.2207338377650359e+01 0 0 0
776 2 7.8336222639255064e+00 1.0255178783695046e+01 9.9609539521824395e+00 0 0 0
537 2 -1.2673012582553027e+00 7.6012740203099649e-01 1.2142230887337158e+01 0 0 0
538 1 -2.8100149914043340e+00 1.2926704706685883e+00 1.6761075546050257e+01 0 0 0
539 2 -3.7308097760365895e+00 1.0242498557903457e+00 1.6922502471646975e+01 0 0 0
540 2 -2.8555680821202709e+00 1.8231761293620730e+00 1.5884305496580829e+01 0 0 0
541 1 3.0931960538416439e+00 2.6930414238608198e+00 1.1892374431248687e+01 0 0 0
542 2 3.1670244084784098e+00 2.0694207781541984e+00 1.2705894474446687e+01 0 0 0
543 2 3.4704532527693148e+00 2.3089129862711757e+00 1.1053939578239538e+01 0 0 0
544 1 1.0240038197154817e+00 2.6737208933245449e+00 1.6914456874387405e+01 0 0 0
545 2 9.8976604401005464e-01 2.1143689989530343e+00 1.7704733380361468e+01 0 0 0
546 2 8.9865006858117003e-01 2.0742068376415688e+00 1.6199603518917780e+01 0 0 0
547 1 -3.1717847750523513e+00 4.9968462589575013e+00 1.6714694427597220e+01 0 0 0
548 2 -3.8849738405611784e+00 4.3227539158335428e+00 1.6527726936535359e+01 0 0 0
549 2 -3.3643942936346125e+00 5.3391105825988898e+00 1.7617771565925899e+01 0 0 0
550 1 -8.6610617119372257e-01 5.2559838563198538e+00 1.2007354103613908e+01 0 0 0
551 2 -3.9190763473605639e-01 4.4551923320500917e+00 1.2282700130109452e+01 0 0 0
552 2 -8.6585345128879521e-01 5.7748365133411861e+00 1.2800565815953853e+01 0 0 0
553 1 3.5100936202199806e+00 3.3801546001223626e+00 1.6006626867081835e+01 0 0 0
554 2 2.6683739537194713e+00 2.9812190120351505e+00 1.6422972623254260e+01 0 0 0
555 2 4.1391313192952213e+00 3.7208195086767284e+00 1.6623702061253010e+01 0 0 0
556 1 6.3265736317082677e-01 3.2768573333101552e+00 1.2708953850199427e+01 0 0 0
557 2 1.4786466449666227e+00 3.0846616248723544e+00 1.2205196742425711e+01 0 0 0
558 2 4.6284780017347948e-01 2.4797365992324112e+00 1.3267550939609961e+01 0 0 0
559 1 -3.4926990312785993e+00 4.4077397712100703e+00 1.2765329525182022e+01 0 0 0
560 2 -2.7041471206842331e+00 4.8481054701622552e+00 1.2212712630712899e+01 0 0 0
561 2 -3.1220078913982863e+00 3.6829716723365120e+00 1.3331876898232437e+01 0 0 0
562 1 -8.9314340762480793e-01 4.2066490929937546e+00 1.5778795823719481e+01 0 0 0
563 2 -1.3012199657208079e-01 3.8100039978838298e+00 1.6193411080566392e+01 0 0 0
564 2 -1.5446642434535400e+00 4.5539639550281672e+00 1.6404946900221173e+01 0 0 0
565 1 5.2175497999431766e+00 6.5022266241030282e+00 1.1142254787434005e+01 0 0 0
566 2 4.7962370943457717e+00 7.1277360044485603e+00 1.0558363973763260e+01 0 0 0
751 1 3.9438987522627702e+00 8.6217186794016456e+00 1.0107066482055421e+01 0 0 0
568 1 -9.9869840836543844e-01 7.2086240209122057e+00 1.7731955035895908e+01 0 0 0
569 2 -1.0924571109454169e+00 6.4624421506532066e+00 1.8373179059955550e+01 0 0 0
570 2 -8.0983992093200463e-01 8.0169377465514682e+00 1.8235678404406286e+01 0 0 0
188 2 -5.5396955454193852e+00 9.3597125627559254e+00 1.8839521198179479e+01 0 0 0
572 2 -5.7565719895424570e+00 1.3195788902222567e+00 1.8329431419520578e+01 0 0 0
168 2 4.3980976281427901e+00 6.6025705284175435e+00 1.8883186748866962e+01 0 0 0
82 1 -4.2121471584548011e+00 6.0666376968652198e+00 1.9078213937349439e+01 0 0 0
576 2 7.0556629341956745e-01 1.2644430759295313e+00 1.0631111176469561e+01 0 0 0
577 1 2.1540428082594287e+00 4.9194461838892840e+00 1.4396802990363888e+01 0 0 0
578 2 1.4820215832678363e+00 4.3054730510490664e+00 1.3916567525525425e+01 0 0 0
579 2 2.6842648264771336e+00 4.3032755947052133e+00 1.4958271125233029e+01 0 0 0
580 1 -2.4167303960582607e+00 2.5637311138446264e+00 1.4404727595615938e+01 0 0 0
581 2 -2.0300464507714704e+00 1.9823623486831594e+00 1.3715497098880173e+01 0 0 0
582 2 -1.6795465911598999e+00 3.1418871759444542e+00 1.4840773975156292e+01 0 0 0
824 2 2.7361052594628550e+00 7.5772211001625314e+00 1.7510607807067601e+01 0 0 0
588 2 -9.0373811566197348e-01 6.0683073674691244e+00 1.0517338361791062e+01 0 0 0
589 1 1.2517683455658766e+01 1.3606317685048674e+00 1.4260230199974014e+01 0 0 0
590 2 1.1606140754957245e+01 1.0322677818158541e+00 1.4259700252742521e+01 0 0 0
591 2 1.2508408591380814e+01 2.1512356961296115e+00 1.4855139872764321e+01 0 0 0
592 1 9.8582711924439401e+00 1.1477784382070151e+00 1.4498526287201356e+01 0 0 0
275 2 9.8703779340861733e+00 9.3993178029853723e+00 1.0244217716349475e+01 0 0 0
594 2 9.5374557418157764e+00 1.8151875127843426e+00 1.3867616708337597e+01 0 0 0
595 1 5.1361052262099394e+00 6.2835000455151508e+00 1.4930800532844724e+01 0 0 0
596 2 5.0227944699920144e+00 5.7350326879894649e+00 1.5796357758827716e+01 0 0 0
597 2 5.0120569675577284e+00 5.6610966449703009e+00 1.4170580428815821e+01 0 0 0
598 1 7.9059186949060916e+00 6.3682473044662684e+00 1.4675084374588094e+01 0 0 0
599 2 6.9697393629253233e+00 6.4214772873848212e+00 1.4994453326758704e+01 0 0 0
600 2 7.8014166112412298e+00 6.0102987444708420e+00 1.3799933693309775e+01 0 0 0
247 1 2.9834026424228011e-01 9.3585698246796216e+00 1.9137504137568399e+01 0 0 -1
603 2 1.0700237264383759e+01 5.0403182803528104e+00 1.8088783601037854e+01 0 0 0
833 2 6.5579448279903341e+00 9.2127011405911645e+00 1.3880686867911944e+01 0 0 0
605 2 1.1304808304807754e+01 5.2867375423548948e+00 1.0693861738666316e+01 0 0 0
98 2 1.3891674648483066e+01 5.2202682492366881e+00 9.9344238982639848e+00 0 0 0
711 2 2.3391502434115958e+00 1.0319777692008007e+01 1.2466493607909817e+01 0 0 0
163 1 9.2801222741918039e+00 1.6071417571927786e+00 1.9199223178865857e+01 0 0 -1
609 2 6.8320871042509221e+00 2.3124002486748614e+00 1.0830269008107331e+01 0 0 0
749 2 -1.5057835779132187e+00 1.0487722133924095e+01 1.4943947541590614e+01 0 0 0
611 2 6.0295687302286298e+00 2.5334307866990917e+00 1.8480495171570364e+01 0 0 0