LAMMPS data file via write_data, version 8 Apr 2021, timestep = 500000

384 atoms
2 atom types

0.10680257100324037 14.963295428996313 xlo xhi
0.02481981324929054 14.145413186751322 ylo yhi
0.07527500815538295 13.630447991844983 zlo zhi
5.0922427343972325 5.056701393653083 3.515310021621037 xy xz yz

Masses

1 16
2 2

Atoms # atomic

1 1 7.489062263515846 5.374950117114855 4.00783982218051 0 0 0
2 2 7.163601891902393 6.285830460946184 4.370591784097569 0 0 0
3 2 6.716687061004585 4.864980799641333 3.747324359359361 0 0 0
4 1 9.988593012809938 7.142392868913423 10.843658536677903 0 0 0
5 2 9.700035472434955 7.914667821801754 11.447113122360967 0 0 0
6 2 10.23233711413887 6.455870464511011 11.437399684376041 0 0 0
7 1 9.882140980135889 12.226936363155092 4.0512152779730295 0 0 0
8 2 10.23570527817697 11.699119663847727 4.813718052415074 0 0 0
9 2 9.741732973956914 13.127715544582346 4.503436357816788 0 0 0
10 1 12.225150437581783 14.02634916682589 10.907556894366806 0 0 0
11 2 13.028539358469063 14.124758677400713 10.333079517896564 0 0 0
12 2 11.598846336624794 13.447731572439887 10.310584059551815 0 0 0
25 1 11.467713540133133 8.16459898943754 6.448844118595449 0 0 0
276 2 15.091730504115601 14.332300088135927 8.817463376683644 0 0 0
27 2 10.815407389059208 7.648968215141941 6.928382296705152 0 0 0
28 1 14.027318856255684 9.80946446745435 13.001699649311435 0 0 0
29 2 13.270198935746333 10.513059400851672 12.695238413589568 0 0 0
339 2 3.476393872804655 6.396237699239175 3.7844976473974397 0 0 0
31 1 13.870084744809192 15.310945214377016 6.288522331248364 0 0 0
368 2 9.034401806487308 15.435493090172994 5.175420542201112 0 0 0
33 2 8.143219398481444 1.866967533596838 5.9903861061201065 0 1 0
34 1 16.514673272178793 16.793265798219398 12.937579383777381 0 0 0
30 2 14.782102598476083 10.296412111801265 13.409247242184579 0 0 0
372 2 13.064890550087913 16.786341957613622 11.532382936252047 0 0 0
49 1 5.303326564512988 3.884600827507316 2.8574213815579728 0 0 0
50 2 5.731561767853382 3.0077653671959435 2.5834095497617433 0 0 0
51 2 4.788245114997076 4.122399721788181 2.086726296432528 0 0 0
52 1 7.920843685184646 5.57399893468044 9.87780242765053 0 0 0
53 2 7.452330991334207 5.2375442788499 10.57593686391489 0 0 0
54 2 8.607224218961326 6.1762105597914205 10.194412581344274 0 0 0
55 1 7.920625961526552 10.63789927706378 2.8139318955838015 0 0 0
56 2 8.027065017302833 9.608052512883315 2.7632151778584118 0 0 0
57 2 8.614460857622202 10.997374781920804 3.427992382061926 0 0 0
58 1 10.211805474671007 12.62556310185714 9.588776086893327 0 0 0
59 2 9.551254481132634 12.891922815886023 8.875798090553934 0 0 0
60 2 10.401984120031335 11.700734267703114 9.348047994798435 0 0 0
73 1 1.074424350939245 0.5701133020544513 0.6278905235176884 0 0 0
74 2 6.926697882226434 14.148223685861554 1.0273284348999818 0 -1 0
367 1 9.626397114445794 14.698663900758147 5.304948145354035 0 0 0
76 1 3.7656686797967365 2.711560112581902 7.346043023378564 0 0 0
173 2 12.341164694413262 5.5596799421340695 12.302104369666916 0 0 0
78 2 9.408693899640861 16.07291690888876 7.582291541290306 0 -1 0
125 2 5.044333855713779 4.509120878912322 10.414637379176591 0 0 0
80 2 4.344094698303339 7.506910766079572 1.1045745040404442 0 0 0
371 2 11.963221345429734 15.686075058436922 11.276264955791941 0 0 0
82 1 6.4692106789534956 9.637611543152493 7.546299883915475 0 0 0
268 1 12.4091556735205 7.8548201509072415 9.643353571070435 0 0 0
364 1 9.73900700911799 9.375026935894372 12.23127295134735 0 0 0
97 1 5.307915517392378 4.581712820590072 5.9244998724399816 0 0 0
98 2 4.839463218748134 5.05131412986394 5.185581943094762 0 0 0
99 2 4.581373841731026 4.02122840822472 6.272918802679804 0 0 0
100 1 7.797949224353558 5.880449280955356 12.8326842025862 0 0 0
101 2 2.9887964392575928 2.8991407908811753 0.10792802280269258 0 0 1
102 2 7.0778501108044205 5.2619322737267265 13.1367777646818 0 0 0
103 1 8.020925577522346 11.148263381430068 6.0929541217548895 0 0 0
104 2 7.292635083190334 10.602500792628117 6.500277370714895 0 0 0
105 2 7.638433504205739 11.505571468690253 5.287121697382666 0 0 0
106 1 10.260450591909079 13.20407411142565 12.694974704886201 0 0 0
107 2 10.80906059926017 13.632878899887627 13.392554107762912 0 0 0
108 2 9.616539552659729 12.589578283738062 13.101135519735921 0 0 0
121 1 2.970082973121499 2.882167002264999 4.197023856674166 0 0 0
122 2 3.729251625095823 3.3352832674561346 3.7679961423795985 0 0 0
370 1 12.1703788697898 16.478891302551066 11.834480409603783 0 0 0
124 1 5.781456700632814 4.601008504403241 11.094517360111475 0 0 0
26 2 12.095881286286827 8.4906857780214 7.167985892248691 0 0 0
126 2 5.935317504144701 3.714073746341242 11.4259780610891 0 0 0
127 1 5.559995891876017 10.323258372511264 4.303900048992796 0 0 0
128 2 5.797500502567746 9.512194987418987 4.749595669973075 0 0 0
129 2 6.44376936862832 10.501512051333712 3.7811180678370135 0 0 0
130 1 8.180401247868247 11.451606517202906 11.146809093374726 0 0 0
366 2 9.132943387482497 9.935031301868904 11.72173793523445 0 0 0
132 2 8.865085673679614 12.006681776037274 10.643877409721597 0 0 0
145 1 6.883188515955891 2.4639397608861517 4.984028925665144 0 0 0
146 2 6.305917704641753 3.247645347402931 5.132577402835059 0 0 0
147 2 7.2336612378298915 2.5241352502239573 4.082028668040319 0 0 0
148 1 9.393352048616395 3.6833580078960946 11.654002064369495 0 0 0
149 2 8.889140575905103 4.409044951109073 12.051866746152578 0 0 0
150 2 10.102816712418804 3.3615318961777896 12.15661343296169 0 0 0
151 1 9.494831585054623 9.207007437508041 5.051999663803067 0 0 0
152 2 9.089812984717902 9.82744446807962 5.675474378702405 0 0 0
153 2 10.261064768369245 8.975981696461727 5.592894848482241 0 0 0
154 1 11.987930373512656 11.102189481389226 11.834212753021134 0 0 0
155 2 11.372614560347833 11.828935855624984 11.996418518454782 0 0 0
156 2 12.413919225917263 11.184849686951992 10.915044904353465 0 0 0
169 1 8.969457678446851 4.660848681005605 6.202495177242647 0 0 0
170 2 8.262240216015142 4.896140468756357 5.602498750240885 0 0 0
171 2 8.48053535653659 4.034643487132302 6.7837238801832624 0 0 0
172 1 11.535843151196342 5.922144429784896 12.784691292694225 0 0 0
83 2 6.27346857224157 10.231881804326346 8.268065538556376 0 0 0
174 2 11.764791039911238 6.863265532364976 13.023601528893725 0 0 0
175 1 11.39022281377963 11.334374243721278 6.231483817068998 0 0 0
176 2 11.095281613274732 10.899938171442521 7.042287957155157 0 0 0
177 2 12.07808053715345 10.746679143778955 5.770399729667948 0 0 0
178 1 14.191460783105923 13.20833340432689 12.908413719917469 0 0 0
179 2 13.42799010722733 13.441369992646472 12.40516852300777 0 0 0
180 2 14.770136282166861 12.763772899604053 12.314004404972849 0 0 0
193 1 8.193828561773502 2.6027927229948973 2.49252681833915 0 0 0
32 2 14.573224373908682 15.793520255995686 6.787160767196969 0 0 0
195 2 8.032129031338782 3.389017810650812 1.84128875927171 0 0 0
196 1 11.067468222832593 4.289409183266054 9.54242226898451 0 0 0
197 2 10.326240140271484 4.093143412802889 10.204412123222593 0 0 0
198 2 10.776029705580443 5.138543366876298 9.20436819972558 0 0 0
199 1 11.009723170695565 9.482320115163269 2.80430059642516 0 0 0
200 2 10.73643822664831 10.182105633348426 2.1595583990156837 0 0 0
201 2 10.321045951484262 9.405455369180126 3.475938990912314 0 0 0
202 1 13.492969558588186 11.260009052856221 9.598921961192163 0 0 0
203 2 13.167848276219885 11.905360549961376 8.953204754373377 0 0 0
84 2 5.597223264867026 9.30068871210409 7.211462007854996 0 0 0
217 1 5.437341044869342 1.38996471878157 1.6081987666871547 0 0 0
218 2 6.063569897608365 0.7118741655357618 1.931558865303361 0 0 0
219 2 5.942268542312044 1.8365586336921185 0.9237912361921458 0 0 0
220 1 8.033706192164136 3.2511638755066143 8.287289543237087 0 0 0
221 2 7.9189930725086315 4.058483944291827 8.77531640472424 0 0 0
222 2 7.050609856432947 2.9073019828693702 8.253137388575635 0 0 0
223 1 8.326348357025353 8.187284057830311 2.110973496513347 0 0 0
224 2 9.002195577409507 7.491162761238296 2.3834290429891536 0 0 0
225 2 8.694888747075217 8.576017663561151 1.277129450602713 0 0 0
226 1 10.783332170794619 10.03735970950442 8.798488339472938 0 0 0
227 2 11.53336767978745 9.44310933100357 9.009218682774737 0 0 0
228 2 9.97942895473502 9.521232128891343 8.96155206522 0 0 0
241 1 7.408343237091829 4.477260174542327 0.7632661379382998 0 0 0
242 2 8.145304387968629 5.01408396866378 0.2920206856646406 0 0 0
243 2 6.7635995632931465 5.113178824155716 1.1130283239456604 0 0 0
244 1 9.908368342581806 6.522145533343171 7.700651805190701 0 0 0
245 2 9.275564182430314 7.1645042457475245 8.047283488572125 0 0 0
246 2 9.36395686404909 5.982352669062105 7.01616946262355 0 0 0
247 1 10.134100317383375 11.358480815893124 1.0483494393571946 0 0 0
248 2 10.68075465496454 12.030230289759452 0.6552101368676994 0 0 0
249 2 9.65434474612843 10.866026541301192 0.3672413082697448 0 0 0
250 1 12.408065319306417 13.372482653107815 7.655808385056136 0 0 0
251 2 13.051502282640095 13.933509650394718 7.149947320750657 0 0 0
252 2 11.993655919107523 12.774963618978079 7.01688084365846 0 0 0
265 1 9.793310513582005 6.02347671248158 2.827261233606071 0 0 0
79 1 3.4459961666966765 7.888281281169224 0.8728281176124955 0 0 0
267 2 9.16327110797988 5.544499830698878 3.328447298825609 0 0 0
273 2 12.72794177673279 13.27326923480276 3.1128279882893772 0 0 0
269 2 11.537387259012524 7.70119463438013 9.962744217214423 0 0 0
338 2 4.499553016366862 7.22146711475378 4.716811755734786 0 0 0
271 1 11.952983444630597 13.067321536017548 2.474377078455796 0 0 0
272 2 11.24525247120927 12.638797301479288 3.029550517107512 0 0 0
266 2 10.59014996143275 6.191158418238509 3.355092365094276 0 0 0
274 1 14.585767021875576 14.887353096689704 9.498707247702809 0 0 0
275 2 14.48052481013115 15.743764337228624 9.068854665731466 0 0 0
369 2 10.562344914450492 15.177659767633362 5.32523278074068 0 0 0
289 1 5.929657746815596 6.757319045422502 1.801270698393249 0 0 0
290 2 6.531207185645058 7.494486955158238 1.897784706938024 0 0 0
291 2 5.544427615898731 6.611201665136996 2.675308714490895 0 0 0
292 1 8.558445652431107 8.530152387293448 8.820625923984164 0 0 0
293 2 7.809186832829291 8.808659144675973 8.279786520114305 0 0 0
294 2 8.093471494433718 8.267236488125818 9.632991591985915 0 0 0
295 1 8.608855784857353 13.670263833501538 1.7037498135999598 0 0 0
296 2 9.046637185190844 12.786720434840257 1.7960950520532075 0 0 0
297 2 9.403075987756303 14.292490825633124 1.6988476139300954 0 0 0
298 1 10.795531370284388 15.560118681785287 8.41878033958356 0 0 0
299 2 10.343447350950424 15.390584208914811 9.315396520391658 0 0 0
300 2 11.35379450682808 14.788304261397831 8.23236764867301 0 0 0
313 1 3.7784488742362283 4.644001591310118 1.0603446145756124 0 0 0
314 2 4.09774913415322 5.239808906153866 0.4009670239210834 0 0 0
315 2 3.14532371480825 5.200177080883938 1.5785680073884358 0 0 0
316 1 6.510966170321681 6.40691931299317 7.540244355546852 0 0 0
317 2 5.994906487818055 5.6473471054852995 7.139101351848608 0 0 0
318 2 6.988584346494739 6.118723660650669 8.350511808271552 0 0 0
319 1 6.467204375447821 11.502103834401296 0.7594105412098676 0 0 0
320 2 7.2035492573699 11.220315102258844 1.3900079156301117 0 0 0
321 2 11.897387875572704 15.442467727102102 13.482170741301449 0 0 -1
322 1 8.402075866882612 13.276355527429553 7.619526207002517 0 0 0
323 2 8.90302236444794 13.728112843384222 6.886562208611607 0 0 0
324 2 8.179960154726302 12.419716856705602 7.193814795605939 0 0 0
337 1 4.412141468944361 6.468096422867738 4.101553569785293 0 0 0
363 2 7.923385835091386 8.181628130772024 5.157789617504235 0 0 0
35 2 17.2737863635571 17.211435140037057 13.346885302783177 0 0 0
340 1 7.055792830176542 8.259014850737412 11.054108595592472 0 0 0
362 2 6.818391546583747 7.566944064738345 5.900584867504781 0 0 0
342 2 7.161529612030556 7.39619921653489 11.49879112298433 0 0 0
343 1 7.037220461180735 13.175795401402274 4.1426160836514185 0 0 0
194 2 8.289763224394324 1.7915397972119398 1.8688143828997488 0 0 0
345 2 7.704604556667793 13.225175612458917 3.4029879926085096 0 0 0
346 1 9.41952477533913 15.258072549638928 10.890759578121198 0 0 0
347 2 9.66820908400669 14.404959010533831 11.293838454690633 0 0 0
365 2 10.578927508165998 9.80131130711982 12.10637907953464 0 0 0
361 1 7.013960980748434 7.833132567277937 5.001503809237119 0 0 0
341 2 7.051193647497266 8.849655896288507 11.769787372664673 0 0 0
131 2 7.469044268136281 11.26209843967675 10.44844460106419 0 0 0
89 2 10.941965176499787 3.197556742504912 8.269918095353601 0 0 0
348 2 8.56262596062216 15.170389562035883 10.384354156707834 0 0 0
77 2 2.95318708745764 2.314579867677461 6.977028758440027 0 0 0
204 2 13.581147143505715 10.395974031026354 9.15548557702808 0 0 0
344 2 6.213630276317216 13.066319837944032 3.6389548561088163 0 0 0
285 2 5.154718203567879 12.412850782013553 1.934488018127512 1 0 0
45 2 6.925360467735945 14.810238799015782 5.216129214898959 1 0 0
270 2 13.123514278296637 7.773414710135869 10.288589482569153 0 0 0
13 1 14.643679248649311 5.412011681237666 4.03528968623499 0 0 0
14 2 13.922931416370929 4.78780323558692 3.8021248783143755 0 0 0
15 2 14.876880207648817 5.09103994057596 4.933377660868257 0 0 0
16 1 17.499547838916005 6.850582407135896 10.845323226290608 0 0 0
17 2 16.742936713412174 6.41074667524025 10.371266645943773 0 0 0
18 2 18.268704065400446 6.996178222900759 10.201044998536442 0 0 0
19 1 17.287806265697068 12.271834837320442 4.27191517527368 0 0 0
20 2 17.987232591982433 12.382889569739149 3.5979960439211465 0 0 0
21 2 16.555055098804587 11.811658909588317 3.799285323358335 0 0 0
22 1 19.973222757123697 13.934846510922691 10.555781468059331 0 0 0
23 2 20.69408363357328 14.308952475967464 10.013125691570206 0 0 0
24 2 20.414041041977427 13.604483390276991 11.366101549072283 0 0 0
37 1 19.113428785819256 8.184180140869147 6.193106693834618 0 0 0
38 2 18.342482569871905 8.770219801987341 5.884792690001101 0 0 0
39 2 18.753434703597865 7.351659195420337 6.504331837571427 0 0 0
40 1 21.43222770252775 9.77183879685089 13.258781743179572 0 0 0
379 1 17.1741101235769 14.672204386985868 5.4113750112218995 0 0 0
42 2 20.661690923376806 10.297834641436449 12.96240350294933 0 0 0
43 1 21.402333666252925 15.09880109600373 6.075471057891912 0 0 0
44 2 20.565889781678145 15.50441580733085 5.741260992299111 0 0 0
375 2 14.245787159192531 7.400010027280009 6.229557568255029 0 0 0
46 1 23.956833073935695 16.811828240484157 12.954853155752106 0 0 0
384 2 19.553449534386825 15.577017692214852 11.595585737347752 0 0 0
360 2 16.405740397245395 14.746106194415617 10.44319775784852 0 0 0
61 1 12.787825829494638 3.4621349403909574 2.8404288351764477 0 0 0
62 2 12.093901205457213 3.3065376472939123 3.4807509636787315 0 0 0
63 2 12.312491424099077 3.7455928702295997 2.044660004098717 0 0 0
64 1 15.390531224034504 5.340197946437437 9.658040928943928 0 0 0
65 2 14.898695756432224 5.724310425673958 8.885959030614908 0 0 0
66 2 14.59680646651072 5.1396739002168035 10.26302522892111 0 0 0
67 1 15.136078674464036 10.897695766905628 2.8103663987690615 0 0 0
68 2 15.415276082407503 9.969598754812404 2.7120341679048683 0 0 0
69 2 14.43647083799031 10.901985058250814 3.4920922355225397 0 0 0
70 1 17.73748327887869 12.431021542262151 9.497948360015627 0 0 0
71 2 18.537483877652058 12.911536590369826 9.776331055292015 0 0 0
72 2 18.005017702549118 11.472745229363127 9.446815190620674 0 0 0
85 1 8.635512048143019 0.6428088532975902 0.5565329302134664 0 0 0
86 2 14.376410859741664 14.208973230011681 1.0495650321065582 0 -1 0
87 2 14.285154802042571 4.713414534990407 13.584617761006486 0 0 -1
88 1 11.042636739108563 2.630636117971001 7.476521326184416 0 0 0
380 2 16.539284521050988 15.184507867028387 4.862640144006132 0 0 0
90 2 11.909652210513386 2.153898941728623 7.634836938753589 0 0 0
91 1 11.036723570761325 7.736600482900809 0.6926568202602886 0 0 0
92 2 11.635846654934657 6.962387223621913 0.7970789922551204 0 0 0
209 2 18.42736667451137 3.765568814901479 8.730560782198754 0 0 0
94 1 13.668439122720127 9.551300810767994 7.626348532470182 0 0 0
95 2 14.378874549983111 8.95269368744254 7.855689122630348 0 0 0
96 2 14.078833336674107 10.201019840156482 6.969894653550939 0 0 0
109 1 12.54952892340602 4.400950056450439 5.836241281098222 0 0 0
110 2 11.833890588190883 3.8865622868047254 6.2836226613544675 0 0 0
111 2 13.140512107174368 3.743331595484063 5.500832880146523 0 0 0
112 1 15.355261095926725 5.8169801817953966 12.9049916138046 0 0 0
113 2 16.121806637256636 5.278244783820864 12.463190905460554 0 0 0
114 2 15.725593517172047 6.390828138321775 13.598065013729586 0 0 0
115 1 14.870889621821481 11.37479452975983 6.379475527444056 0 0 0
116 2 14.372052614075953 11.724602190168834 5.640189492565895 0 0 0
117 2 15.272946233510485 12.191818579154539 6.659304948559514 0 0 0
118 1 17.984619184214797 12.838279139815105 12.805573826259186 0 0 0
119 2 18.180935136876577 13.595482701762245 13.366902108185494 0 0 0
120 2 17.150654707246993 12.460873595525673 13.085037356437354 0 0 0
133 1 10.671309216355302 2.583492830574316 4.1425376600906265 0 0 0
281 2 20.37175671835996 7.963503139829481 9.930740673883706 0 0 0
141 2 12.719366533137386 9.618719180985622 3.7148877160064866 0 0 0
136 1 13.293793430138882 4.555884678811008 10.936629566147374 0 0 0
137 2 13.596127575188614 3.7203180813741556 11.297071577848792 0 0 0
206 2 16.445528977559263 2.7831964187701344 3.0935208326945967 0 0 0
139 1 13.105507627097511 9.824791117425624 4.582550166822371 0 0 0
140 2 13.43974937789764 8.979247424215632 4.877718446894357 0 0 0
376 1 16.977168613278288 9.295964898877646 12.137289342381935 0 0 0
142 1 15.640498676540048 11.62763065644197 11.272407106250549 0 0 0
143 2 16.339702981724344 12.048932455323746 10.774293125259382 0 0 0
212 2 19.123871091855005 10.216226431220333 3.127957948216329 0 0 0
157 1 14.177108865523168 2.358064769381473 5.25234311497546 0 0 0
158 2 13.541236412709319 1.6736841495789425 5.051253806252863 0 0 0
159 2 14.543469103821232 2.626896255972978 4.398980150666991 0 0 0
160 1 16.8273372109578 3.9922117552967316 11.883362556561526 0 0 0
161 2 16.16472843613496 3.2913878694133474 12.031744668402403 0 0 0
162 2 17.604693886464137 3.7811071226480935 12.445992535771095 0 0 0
163 1 16.92033659902481 9.540458277125174 5.183218116661 0 0 0
164 2 16.329289316987808 8.73027204839197 5.325963456903473 0 0 0
165 2 16.3529209268312 10.185846062133173 5.626492700342781 0 0 0
166 1 19.299049495686464 10.799859137511593 11.671082388331497 0 0 0
167 2 18.718127010120416 10.050175366100168 11.781999431559868 0 0 0
168 2 18.740209514193225 11.594196084249607 12.068762891977892 0 0 0
181 1 16.198255145827847 4.457022848620342 5.831133969460718 0 0 0
182 2 15.777483920213989 3.7768769784451925 6.471940966851028 0 0 0
183 2 16.609710197493822 5.202888212172705 6.299315307488374 0 0 0
184 1 18.920978299200574 6.067366453801349 12.79736139613688 0 0 0
185 2 19.659133768745143 5.688259176560942 12.297125461463178 0 0 0
186 2 18.24850448167675 6.419081375267638 12.082056408303933 0 0 0
187 1 18.78702230877609 11.42872979345243 6.2249567674463435 0 0 0
188 2 19.526031258910017 11.088012629230478 5.692695163098549 0 0 0
189 2 18.073689276081286 11.688738461796842 5.561270870459679 0 0 0
190 1 21.31323132779649 13.014564431573895 12.648303566995635 0 0 0
191 2 22.05544978237252 12.442861521949403 12.299925907369683 0 0 0
192 2 21.734030913998705 13.80760975588174 12.936185290877766 0 0 0
205 1 15.568769792060234 2.5996124558619864 2.704608840556071 0 0 0
374 2 14.65692496304047 6.988603723700743 4.806912531059295 0 0 0
207 2 15.351729711672526 3.4318139619548162 2.1984421693614062 0 0 0
208 1 18.465190219051536 4.5093782021915985 9.375980023488856 0 0 0
353 2 14.440501431596536 8.679034301120492 11.70030187856946 0 0 0
210 2 17.852504741407298 4.21826633722548 10.107054513800133 0 0 0
211 1 18.19800253405444 10.0231861916709 2.813830781910575 0 0 0
288 2 22.353904085547246 14.385959904264942 8.614370436537506 0 0 0
213 2 17.712864833092596 9.747948531157729 3.6051501182613275 0 0 0
214 1 20.902090710476216 11.27450883093519 9.483779703677145 0 0 0
215 2 20.405292769178878 11.17330533677515 10.285106238103438 0 0 0
216 2 20.838915461290874 12.191785241506262 9.11344350857358 0 0 0
229 1 12.932178109025624 0.9089106328381765 1.4715914067362297 0 0 0
230 2 12.974902921629303 1.7638111115348625 2.037312343877878 0 0 0
231 2 13.257834825469866 1.1435395975152198 0.6193100401592648 0 0 0
232 1 15.877399341483363 3.0547256635935685 8.307260637594394 0 0 0
233 2 15.893001398455286 3.893409257178333 8.835961751213022 0 0 0
234 2 15.082746516936053 2.546015913311566 8.524622658080487 0 0 0
235 1 15.26945626886867 8.407123973685504 1.8580249786659582 0 0 0
236 2 15.321257759070368 8.558802842332291 0.9099040595212662 0 0 0
237 2 14.646334922721312 7.664904860058042 1.837869400391776 0 0 0
238 1 18.03048786125996 9.945926088009292 8.662097463515563 0 0 0
239 2 18.642492272828747 9.29523612781788 9.014568068536168 0 0 0
240 2 18.52979409646302 10.39040900075864 7.9591975296910356 0 0 0
253 1 14.776411937760216 4.518339719595837 0.8719371251188044 0 0 0
254 2 15.558250010303409 4.960082016542544 0.48899072109299513 0 0 0
255 2 14.548498535987337 3.8082950670837397 0.24826649209534446 0 0 0
256 1 17.47378299309212 6.343488777626447 7.323585770674116 0 0 0
257 2 16.813871707070792 6.860949410401403 7.763072219516283 0 0 0
258 2 17.727529388616425 5.66120054539082 7.978364145765725 0 0 0
259 1 17.190887204080735 11.636052098151199 0.8074549086444345 0 0 0
260 2 18.01911578101745 12.129779890975046 0.4607389307553915 0 0 0
261 2 17.53757944862383 11.019581686967838 1.5359284829853295 0 0 0
262 1 20.157563446802428 13.31380618385058 7.477998520191971 0 0 0
263 2 20.7520672701902 13.835479797965192 6.858942710578127 0 0 0
264 2 19.58344257328208 12.735648684423756 6.926977784094303 0 0 0
277 1 16.929416375843573 6.151818175158117 2.953677965089813 0 0 0
278 2 16.077790145168812 5.790432675378572 3.355446160721294 0 0 0
279 2 16.645431904487467 6.951338128928745 2.5439761452705367 0 0 0
280 1 19.54505648966166 7.851337002366237 9.462300972893198 0 0 0
377 2 16.995229272749494 8.526017484559093 11.574554442093751 0 0 0
381 2 17.33731546218177 13.794719609635651 4.994037285637587 0 0 0
283 1 19.451292696632986 12.86700341635801 2.6107681797057403 0 0 0
284 2 19.024188417287526 13.564745239889008 2.1427922284022043 0 0 0
383 2 19.29284318775619 16.14984663056737 12.872431077903016 0 0 0
286 1 22.059477994714577 15.011590366063176 9.321963223275326 0 0 0
287 2 21.782965481615037 15.856390516593681 8.882157740325175 0 0 0
382 1 19.680602752134448 16.446443442182243 12.027714976570605 0 0 0
301 1 13.108735028204675 6.4295580032998005 1.7753179739510534 0 0 0
302 2 13.616924412768945 5.651772590739707 1.5785534356800366 0 0 0
303 2 12.818573665304978 6.305948871066216 2.675477762281867 0 0 0
304 1 15.835207482148395 8.185309456390213 8.43500284464828 0 0 0
305 2 15.584587851485214 8.147797357751017 9.369947178313208 0 0 0
306 2 16.458121164378056 8.92520760803511 8.471984636408408 0 0 0
307 1 15.653450416513259 13.489262267609721 1.7534260219390194 0 0 0
308 2 16.35628491045434 14.210881085167332 1.7551122970554769 0 0 0
309 2 16.199878942064547 12.731187441656648 1.4191143940316795 0 0 0
310 1 18.61161106961964 15.616858960858346 8.36831684692803 0 0 0
311 2 19.080632269786847 14.846211261421804 7.968703121383611 0 0 0
312 2 18.454612708493965 15.368494477835982 9.294675871149941 0 0 0
325 1 11.240334176028622 4.363595355915543 1.0128987064338104 0 0 0
326 2 10.793475406224754 5.0583822822292985 1.5469058881196864 0 0 0
327 2 11.468122215792356 4.8436363828679445 0.17260483072038652 0 0 0
328 1 13.720362910575185 6.140276123680314 7.575490382329959 0 0 0
329 2 12.86742277111551 6.498011116659402 7.974236776132426 0 0 0
330 2 13.423546921306595 5.283666970023529 7.097152826401426 0 0 0
331 1 13.717954583288387 11.569284137265502 0.7269047086151448 0 0 0
332 2 13.013546206028582 12.039698330488584 1.2035112789693567 0 0 0
333 2 14.338956013819741 11.377708890809773 1.4559490352424773 0 0 0
334 1 16.009722268696965 13.443867831242159 7.706706633494503 0 0 0
335 2 16.678523308523435 13.147427601811073 8.374967403715633 0 0 0
336 2 16.498819331818105 14.003138903227384 7.029885518214282 0 0 0
349 1 11.900243866311387 6.502398962299289 4.278103606274593 0 0 0
134 2 10.381194281677098 3.185371036183661 4.8738237989270825 0 0 0
351 2 12.29837805289231 5.720614177003509 4.7201055728068395 0 0 0
352 1 14.641632719819768 7.988853041222501 11.010410246195885 0 0 0
378 2 16.219791605600157 9.836139464082345 11.878100881591589 0 0 0
354 2 14.814297503913258 7.208657411960947 11.593837731147225 0 0 0
355 1 14.364461289365538 13.396128989436564 4.207823197206113 0 0 0
144 2 14.888677333698734 11.612551749223286 10.771765520976011 0 0 0
357 2 15.004514694964167 13.557252109183771 3.5009971299003624 0 0 0
358 1 17.242640334544742 14.905636164543203 10.876027735749727 0 0 0
359 2 17.453586125164556 14.072182682839282 11.424672033190843 0 0 0
36 2 16.940548418975574 16.222881168383868 12.228498549775978 0 0 0
373 1 14.856869903179534 7.602960991104388 5.452751887648308 0 0 0
350 2 11.81348031722299 7.224300346912301 4.916257170776231 0 0 0
81 2 18.144171394916896 8.52207294228779 1.5629017008730628 -1 0 0
138 2 12.652578674909579 4.399083274742665 10.193842267418194 0 0 0
135 2 9.938815495859181 2.35429382680394 3.581801262313318 0 0 0
41 2 22.09060391637094 10.395695214978195 13.35366360406807 0 0 0
93 2 11.175823517001326 8.246002065556045 1.5404501359574692 0 0 0
75 2 15.628268846707808 1.2278280715974152 1.333667725622782 -1 0 0
282 2 19.83900863938944 7.367807074243845 8.721400664062006 0 0 0
48 2 24.680876076163617 17.266686208281225 13.394975838866927 0 0 0
123 2 17.472273308749745 3.434615441133314 4.865623662185576 -1 0 0
356 2 14.43274512265809 14.16586889219258 4.776735498735751 0 0 0
47 2 24.12906994108673 16.34036956609017 12.121708400716235 0 0 0

Velocities

1 -1.7629256838291403 6.6663431842411605 4.834252987209299
2 2.921787860990383 10.565803168649428 -5.219145838566242
3 26.691394223083115 -7.874277311142402 11.400446258669893
4 7.84206614139126 -6.026190035200745 3.2672900816413435
5 -21.468888163753107 1.7520229592719836 -2.549299871901254
6 -8.211238457932051 6.107709930939235 -3.320464140665385
7 2.951205289979772 -8.21147439302116 -1.399282843228534
8 20.789529622230166 21.421670501045902 9.145104147973818
9 7.183801759651148 7.69300332991691 15.970520564897166
10 -3.391759979990089 -3.489039142545554 7.788294179391742
11 -5.9060527744973985 15.472771571440555 1.6187645029479496
12 -19.18610954911216 10.767433432152517 -23.31034531639462
25 4.475776404105696 -5.490838505739482 -5.691159212130936
276 -18.641998996906278 4.296975163258086 -6.530391555740162
27 3.423967692720821 7.5269646383693125 -11.790937748776987
28 -0.381719073158172 1.173494782601069 -2.081263549561714
29 12.789865400757483 -0.9887217017649023 5.283329679606332
339 15.167261371374265 -5.041482218408909 8.40945933914131
31 3.592064832021078 2.4849063469892965 -1.5255405924873344
368 0.06366282367858557 6.919875654916872 11.125567750062578
33 16.106848635821 -7.100731344354841 11.013340877063925
34 -2.0199050546045045 -4.052808757215069 -3.1671453723539553
30 1.8133203688354527 8.923287310986208 -5.52764329972644
372 -5.47563697481858 -12.12698463024046 1.5677437654247177
49 2.746366130262293 5.57258516442565 0.049748556953114184
50 0.9084832386498215 36.27171533432121 -8.694433620704237
51 -9.862493294087978 9.874737886131484 -14.302333335726066
52 3.5015951948544535 2.5389660933781935 -2.673090682260951
53 9.118621680922043 -8.1839809555828 7.589604665215378
54 7.3968446139203134 13.17740068935079 4.460022938091708
55 -1.0472606825777286 1.447653227379541 3.492604171811017
56 5.9483724151361015 1.43869188638834 -14.306313368130281
57 7.431818000165874 3.3936006712432483 18.8095417801586
58 5.5399822905340015 -1.7765502893298792 -1.1525928841545938
59 16.657882504734957 17.078980180919967 0.29592661414045696
60 2.8138413973400738 -2.7253359586645285 6.511385913680183
73 -3.6245194440358395 -0.629962804000344 -8.930786123155091
74 37.901033225450796 -5.40137723984788 -9.449869978670616
367 1.5661046077138594 8.350625868783517 -0.5266634461791232
76 0.8472821870129967 0.4615225473779376 6.909994582022187
173 7.242838638337603 -7.143005286363183 -0.8602003062026052
78 -3.777003034519113 -7.905485087579896 -3.991365841831438
125 5.321807839885414 -0.43070310707354703 -1.282476194920197
80 -17.415844099504255 6.657999283302145 5.470477989225881
371 12.19031878208526 11.31016414757531 6.444561627685003
82 -3.7207902697663764 -1.3618270103096775 2.4630235309434565
268 2.3410622485082846 -7.395248910245437 -5.037819315474989
364 0.9348693560459828 -8.483223898079027 -8.890512840594367
97 2.4890435798469386 3.568097903467115 4.721064044540264
98 4.300344863232303 5.767361394215702 -0.9431285617475118
99 8.291145149009813 6.776960029006537 5.159748201939942
100 0.5619689707370221 0.7542412923182041 0.3236063788447754
101 14.99067541613773 -1.5347772201176724 1.3872357041875685
102 3.124015089905504 -16.40763424841914 -12.062475440953289
103 4.330547194621153 -1.8041203835235438 -1.2210213919412458
104 -2.4825700239076247 -11.705226735540354 -16.20117061399765
105 -18.370097496944236 8.987627007345125 13.012711734317163
106 0.23352120579085217 -2.8660830077703867 -5.268523224899614
107 -2.4911583238507022 20.38634625022921 -12.401498166961483
108 -18.664155045723998 4.355262563362531 3.60740629915873
121 -0.1837206132947703 0.7460231182751776 2.718669902603879
122 -14.075663471422404 -4.230656632963696 -14.61694585272156
370 6.191955869521758 -3.0574595432163028 -7.480107500750328
124 -1.7951051041474837 -0.8882320780462917 1.6282955413599272
26 26.782302992933932 17.65783137560817 -23.271457549946728