LAMMPS data file via write_data, version 15 Apr 2020, timestep = 1000000

1008 atoms
2 atom types

1.1343860065541733e-01 1.8369961399339466e+01 xlo xhi
1.8014774573582848e-01 2.2237052254258813e+01 ylo yhi
1.9418702619806183e-01 1.9195994973795273e+01 zlo zhi
-1.8578214232696115e-02 -6.7318946571828047e+00 1.1634273002798527e-03 xy xz yz

Masses

1 16
2 2

Atoms # atomic

1 1 1.9904788944801308e+00 3.9672583674856816e+00 2.5784372699870142e+00 0 0 0
2 2 2.5468366430739278e+00 4.6610570568954257e+00 2.9736027421494686e+00 0 0 0
3 2 1.5712229973710912e+00 3.5259650327606473e+00 3.3753943957492027e+00 0 0 0
4 1 3.1323584501439790e+00 6.0356294590716999e+00 4.6093432122256681e+00 0 0 0
5 2 3.8304557270656208e+00 5.5837600705015360e+00 5.0790653405548607e+00 0 0 0
6 2 3.5588155823541676e+00 6.7842218607029192e+00 4.1732453379076855e+00 0 0 0
7 1 4.7884890613102976e-01 6.0411750827494490e+00 1.0298973986055651e+00 0 0 0
8 2 1.7983385932816255e+01 5.6005973972851599e+00 6.1598036980265225e-01 0 0 0
9 2 8.6798420822601208e-01 5.3416456908401537e+00 1.6250066649944368e+00 0 0 0
10 1 5.3774551999346065e-01 3.1299946777100165e+00 4.7556648807069584e+00 0 0 0
11 2 6.8202624927308508e-01 3.8424051348940713e+00 5.4887152620506310e+00 0 0 0
12 2 -3.2635420873753862e-01 2.7346718283010776e+00 4.9240662103924233e+00 0 0 0
13 1 -4.5804080272835623e+00 3.1342671930739865e+00 1.9174516889058030e+01 0 0 -1
14 2 2.0422846826688303e+00 3.4054501853330046e+00 1.1042279611883759e+00 0 0 0
15 2 -3.6809445863765151e+00 3.3036544966944787e+00 1.8874577226027515e+01 0 0 0
16 1 2.9250896029162901e+00 9.3357320489998286e-01 2.7071197925234656e+00 0 0 0
265 1 4.5243447256509217e+00 1.0353329997267899e+01 1.9126729410444135e+01 0 0 -1
18 2 1.9817260174992852e+00 1.0289421344136325e+00 2.8705816169400871e+00 0 0 0
19 1 2.7407473676475613e-01 5.6246143994239084e-01 2.8679696844630809e+00 0 0 0
20 2 -2.8815516401652724e-01 1.3231773581196240e+00 2.5725414305063410e+00 0 0 0
131 2 1.1873623704367457e+01 9.9696131941698629e-01 6.6615390620681794e+00 0 0 0
990 2 1.1647788312362422e+01 3.6738879024320348e-01 1.2961893152111710e+01 0 0 0
24 2 -1.0406039077152127e+00 1.1864953156732763e+00 7.0621380040973989e+00 0 0 0
25 1 -1.7089484039987255e+00 2.2158732252542581e+00 5.8936001711911183e+00 0 0 0
26 2 1.5683062101607275e+01 1.8079919081578786e+00 5.5837699364997251e+00 0 0 0
27 2 -2.0446281775127968e+00 3.0552264733796872e+00 6.3315739586695567e+00 0 0 0
28 1 1.2680514390692408e+00 2.2990868879053936e+00 8.4308287488424067e+00 0 0 0
29 2 2.0497317922182638e+00 1.8221072788287529e+00 8.7415831898069829e+00 0 0 0
30 2 7.6888460518904322e-01 1.6084255739645841e+00 8.0502852230044031e+00 0 0 0
31 1 4.0704140259733168e-01 6.8808988762046273e+00 4.9903453206342165e+00 0 0 0
32 2 1.4099046875015719e+00 6.6551182182945761e+00 4.9463806896055722e+00 0 0 0
33 2 3.1432144022161190e-01 7.4631541698127650e+00 4.1779886062706506e+00 0 0 0
34 1 -7.0523194662154420e-01 6.7624783281218344e+00 9.6582009284559227e+00 0 0 0
35 2 -1.6620143270583050e+00 6.6324891430787387e+00 9.8288618470409475e+00 0 0 0
36 2 -6.9300807084837368e-01 7.1528211442834291e+00 8.7489369347619164e+00 0 0 0
37 1 -1.8860452494024602e+00 4.6076785624003129e+00 7.5248097772154683e+00 0 0 0
38 2 -9.9331263040744777e-01 4.9724746192340925e+00 7.1446641773621034e+00 0 0 0
39 2 -1.5285673122769960e+00 4.2114207690176642e+00 8.2828214074435582e+00 0 0 0
40 1 9.4060139603820714e-01 4.6829682187972885e+00 7.1427498214758849e+00 0 0 0
41 2 1.7027750490012514e+00 5.3088801752309323e+00 7.2325293319655106e+00 0 0 0
42 2 1.0598318409963556e+00 3.8871177063863227e+00 7.7522027783699601e+00 0 0 0
43 1 4.2149311518564971e+00 3.6890005595443935e+00 7.2709136386045872e+00 0 0 0
44 2 4.7533104720996047e+00 3.9346833234738550e+00 6.4505209326134754e+00 0 0 0
45 2 3.4651808209899944e+00 3.1127689996170527e+00 6.9949284664874902e+00 0 0 0
46 1 2.6964597715305851e+00 1.6445279660164442e+00 5.7880669821746880e+00 0 0 0
47 2 2.3677291502864031e+00 8.6197314927724766e-01 6.2175106958467330e+00 0 0 0
48 2 1.8974485200443765e+00 2.1319424963981977e+00 5.4537360478393975e+00 0 0 0
49 1 5.4720760990582207e+00 1.8855025829018421e+00 8.6531061731472061e+00 0 0 0
50 2 5.0547510841427901e+00 2.6244912659909079e+00 8.1553756002855291e+00 0 0 0
51 2 6.2819667790322908e+00 2.2363119560684108e+00 9.0762748563670801e+00 0 0 0
52 1 5.3936569160706318e+00 4.4668208788397772e+00 4.9574592384735077e+00 0 0 0
53 2 6.3264219697660771e+00 4.9665254721516749e+00 4.8164711366205397e+00 0 0 0
54 2 5.0484937306360811e+00 4.0146734451580688e+00 4.1749203441432075e+00 0 0 0
55 1 3.9138607319428775e+00 4.7243954628852931e+00 9.8353770196777219e+00 0 0 0
56 2 2.9908629547690064e+00 4.9278367010465534e+00 9.9976533044111662e+00 0 0 0
57 2 3.9236858564216606e+00 4.6556982533607822e+00 8.8753133386481675e+00 0 0 0
58 1 2.9156576496081885e+00 6.7125732421807589e+00 7.4552657346624871e+00 0 0 0
59 2 3.7911014901850195e+00 6.3510219293338830e+00 7.2047126375241923e+00 0 0 0
60 2 3.0689267272997660e+00 7.3535323762262275e+00 8.1992468100640661e+00 0 0 0
61 1 5.7729268356528376e+00 6.5263759376109398e+00 7.2274047087666675e+00 0 0 0
62 2 5.9550607386305954e+00 7.1955594581278399e+00 7.9096413627460009e+00 0 0 0
63 2 6.5153235747898721e+00 5.9081962565036799e+00 7.2816418582977311e+00 0 0 0
64 1 6.1397582441582665e+00 7.5340406474313912e+00 2.6360736343949243e+00 0 0 0
65 2 6.7638594904934894e+00 6.9132472155450007e+00 3.0588249034218795e+00 0 0 0
66 2 5.6618820477044940e+00 7.8181185305589374e+00 3.4753960448789432e+00 0 0 0
67 1 7.6839484656864352e+00 5.5380748264338786e+00 4.2500718403817563e+00 0 0 0
68 2 8.0733535061913066e+00 4.7100408077687446e+00 3.9112865509168904e+00 0 0 0
69 2 8.5169891050895323e+00 6.0657118971149391e+00 4.3686567663061702e+00 0 0 0
70 1 5.0241419437746586e+00 5.4062708205620380e+00 7.8429559649897107e-01 0 0 0
71 2 5.1897083991061139e+00 6.2021055777466882e+00 1.4048186030149987e+00 0 0 0
72 2 4.0474174173407551e+00 5.4586687931759927e+00 6.0850508269315395e-01 0 0 0
665 2 1.2241357811852840e+01 3.9038222434948266e-01 1.0586637187360934e+01 0 0 0
291 2 7.1554281211204103e+00 1.1157550124855284e+01 8.2460453857959557e+00 0 0 0
75 2 4.4225459724286216e+00 1.3336577678384769e+00 5.0722368233338333e+00 0 0 0
105 2 9.2669852960152959e+00 2.4328911581400767e-01 2.2059137622602809e+00 0 0 0
76 1 6.5806677231454014e+00 1.0108786857015870e+00 2.3172072905772051e-01 0 0 0
78 2 7.5031460970413439e+00 1.3241606033957938e+00 2.3449192408676042e-01 0 0 1
79 1 7.2974803470036020e+00 3.0543485508318833e+00 2.6309409410444049e+00 0 0 0
80 2 7.5477722367944633e+00 3.5494123265859838e+00 1.8214990326906699e+00 0 0 0
81 2 6.3683956813694618e+00 2.7338600023918858e+00 2.6118978862332627e+00 0 0 0
82 1 4.7272782974934362e+00 3.1914492736167470e+00 2.6807785504680171e+00 0 0 0
83 2 4.8238297263026082e+00 3.9011088181663172e+00 2.0486621721091067e+00 0 0 0
84 2 3.8397902981624150e+00 2.7665557674813637e+00 2.7428997917268876e+00 0 0 0
85 1 1.1053617837477372e+01 4.1135169143691872e+00 2.6671044379607394e+00 0 0 0
86 2 1.1699666660570513e+01 4.6988381168624764e+00 3.1419252965061277e+00 0 0 0
87 2 1.0414805479851015e+01 3.8449027887208334e+00 3.4003302318034319e+00 0 0 0
88 1 1.2361163417368990e+01 5.8657721977487682e+00 4.3943318516747967e+00 0 0 0
89 2 1.3165362763053395e+01 5.8096082446793194e+00 4.9235555143326355e+00 0 0 0
90 2 1.2456602549303726e+01 6.6312892487977457e+00 3.8072949984464448e+00 0 0 0
91 1 9.6060594606744072e+00 6.0142537874797091e+00 1.2005730799716972e+00 0 0 0
92 2 8.8532436560134116e+00 5.5299938282262460e+00 8.2712704544692472e-01 0 0 0
93 2 1.0151937083172509e+01 5.3325785907208800e+00 1.6843219909794462e+00 0 0 0
94 1 9.9389358139291364e+00 3.1312461105679614e+00 4.8578010325662850e+00 0 0 0
95 2 1.0057211161306322e+01 3.7862151421143393e+00 5.5930080557041943e+00 0 0 0
96 2 9.0082813392443146e+00 2.7824349357245737e+00 4.9537037977549376e+00 0 0 0
97 1 4.4847939943357034e+00 3.2751403967839470e+00 1.9135409420851527e+01 0 0 -1
98 2 1.1207010744352752e+01 3.3511062063946877e+00 1.0691266400941188e+00 0 0 0
99 2 5.4982280051078281e+00 3.1012337006783830e+00 1.8993414848019377e+01 0 0 0
100 1 1.2444976080030386e+01 7.5935800013189703e-01 2.5600098834641072e+00 0 0 0
699 2 1.2819764680359853e+01 1.0436910445645367e+01 1.5240958195666515e+01 -1 0 0
102 2 1.1531251164050097e+01 1.0246347704130114e+00 2.7378038075519595e+00 0 0 0
103 1 9.5878716863241689e+00 9.7006384151183045e-01 2.8264241996114698e+00 0 0 0
104 2 8.8651581668712574e+00 1.6181857858008395e+00 2.8757261500785911e+00 0 0 0
783 2 3.6580128272764636e+00 1.1069691095024323e+01 1.5415605523697998e+01 0 0 0
77 2 6.3211425136991011e+00 8.3365195875290488e-01 1.1661810064874452e+00 0 0 0
108 2 7.9508037116282182e+00 1.0728167962421007e+00 6.8251102851457475e+00 0 0 0
109 1 7.4465312577837901e+00 2.4813005478752239e+00 5.5843280615841016e+00 0 0 0
110 2 6.5998175730853648e+00 2.1652449084338952e+00 5.1940158987366045e+00 0 0 0
111 2 7.1619194948574521e+00 3.2959804777757955e+00 6.0491465993794762e+00 0 0 0
112 1 1.0149050839302381e+01 2.4071933253966065e+00 8.9013014934114949e+00 0 0 0
113 2 1.1000450681984752e+01 2.0258400678425161e+00 9.2738421694466702e+00 0 0 0
114 2 9.8407881804970838e+00 1.7738287209986801e+00 8.2490003127496738e+00 0 0 0
115 1 9.8853897198314140e+00 6.8382173908469186e+00 4.9292754129004086e+00 0 0 0
116 2 1.0822833670379412e+01 6.5135523781269438e+00 5.0119557391058862e+00 0 0 0
117 2 9.9305010083076724e+00 7.4125905570525106e+00 4.1014218862923491e+00 0 0 0
118 1 8.4882930105185626e+00 7.0515414167503980e+00 9.5526760887912658e+00 0 0 0
119 2 7.5774874480494283e+00 6.6901531742870404e+00 9.6142062512368369e+00 0 0 0
120 2 8.6071390109539188e+00 7.4836137923274180e+00 8.7099004798056345e+00 0 0 0
121 1 7.5454622009764041e+00 4.6027473675592594e+00 7.2366035303706031e+00 0 0 0
122 2 8.5087622559536591e+00 4.6158874191147179e+00 7.3041826581002196e+00 0 0 0
123 2 7.2135345758224503e+00 4.0862872154637664e+00 8.0433072648809851e+00 0 0 0
124 1 1.0208754178902566e+01 4.4769891424716501e+00 7.0932364643127901e+00 0 0 0
125 2 1.0736046468922442e+01 5.2184857648438525e+00 7.3252362326658087e+00 0 0 0
126 2 1.0354443930834773e+01 3.7424835223470496e+00 7.6985432519229251e+00 0 0 0
127 1 1.3509434170010657e+01 3.6091311820028604e+00 7.5768249666413023e+00 0 0 0
128 2 1.3833432871252764e+01 4.2473180395982277e+00 6.8775937763681236e+00 0 0 0
129 2 1.3076560855597354e+01 2.8750823230143951e+00 7.0759537997312352e+00 0 0 0
130 1 1.2053463723829152e+01 1.7824937654629767e+00 6.0529726642329242e+00 0 0 0
181 1 -4.7857697376445074e+00 1.0383716049320531e+01 1.9110131731409080e+01 0 0 -1
132 2 1.1227005037439293e+01 1.9104389985717307e+00 5.5611116011302713e+00 0 0 0
133 1 1.4860032305456164e+01 1.5388615565711921e+00 8.7804246913133337e+00 0 0 0
134 2 1.4557275943676522e+01 2.3390602708811228e+00 8.2892691888617556e+00 0 0 0
135 2 -2.5435917830512742e+00 1.7474498155851763e+00 9.2663349244024911e+00 0 0 0
136 1 1.4613693176997620e+01 4.5532976207887295e+00 5.0657624090719642e+00 0 0 0
137 2 1.5443069733374220e+01 4.8981236786267175e+00 4.6819952781516339e+00 0 0 0
138 2 1.4264620448326399e+01 4.0248783460950328e+00 4.3204344381050452e+00 0 0 0
139 1 1.3045400112114617e+01 4.7151272752350861e+00 9.9377590334089234e+00 0 0 0
140 2 1.2166380572599223e+01 5.0278889895781864e+00 1.0232544016917728e+01 0 0 0
141 2 1.3046226237104765e+01 4.2190313541270310e+00 9.1334863441597332e+00 0 0 0
142 1 1.1742866315633579e+01 6.7074616696268476e+00 7.6454377264392406e+00 0 0 0
143 2 1.2665092337881218e+01 6.3801845120975207e+00 7.5913492819082160e+00 0 0 0
144 2 1.1660915032754598e+01 7.1440513310993454e+00 8.4922135763867921e+00 0 0 0
145 1 1.4561557050462181e+01 6.6255004473357415e+00 7.6386944936614638e+00 0 0 0
146 2 1.4795824214710523e+01 7.1820969427477550e+00 8.3966281215437419e+00 0 0 0
147 2 1.5282227565092786e+01 5.9606308781338999e+00 7.6209532753989517e+00 0 0 0
148 1 1.5280825670356217e+01 7.1009996933632662e+00 2.7127674601948195e+00 0 0 0
149 2 1.5835834749088061e+01 6.3112310264937266e+00 2.8496667367059323e+00 0 0 0
150 2 1.4931675646505125e+01 7.4197446997232763e+00 3.5754275693816728e+00 0 0 0
151 1 1.6787657299294789e+01 5.1348591992353274e+00 3.6177239906937699e+00 0 0 0
152 2 1.7095462749028879e+01 4.2697944941183223e+00 3.3287122831213205e+00 0 0 0
153 2 -7.5329523340708460e-01 5.6089135124163114e+00 4.0626802606119812e+00 0 0 0
154 1 1.3900794599190521e+01 5.2850782000301599e+00 1.3528739994944317e+00 0 0 0
155 2 1.4254394533864097e+01 6.1320844990546313e+00 1.7142261376097110e+00 0 0 0
156 2 1.3250787111778173e+01 5.5264276692131480e+00 6.7145715345873991e-01 0 0 0
157 1 1.4224860155444192e+01 7.9045351944518105e-01 5.1179594899009340e+00 0 0 0
799 1 1.0280847739986953e+01 1.0524656205192526e+01 1.7030065306384554e+01 0 0 0
159 2 1.3352179553028002e+01 1.1470710373675521e+00 5.2940619022050113e+00 0 0 0
612 2 4.8495153094118360e+00 1.1938877222712174e+00 1.6293718641099716e+01 0 0 0
161 2 1.5454014361861164e+01 2.5306646799412702e-01 1.2104714748061862e+00 0 0 0
162 2 9.5055302150894754e+00 9.9309478519390182e-01 1.9104220505229954e+01 0 0 0
163 1 1.6831637601482683e+01 2.5540251607870834e+00 2.3258365114312505e+00 0 0 0
164 2 1.6738441419871698e+01 3.2626176958155129e+00 1.6032487793227872e+00 0 0 0
165 2 1.5897135857718585e+01 2.5591201522352889e+00 2.5871491609457595e+00 0 0 0
166 1 1.4121372772934322e+01 2.9572993334297162e+00 2.8723213176782569e+00 0 0 0
167 2 1.3866594347866068e+01 3.6191659906532330e+00 2.1860428117950743e+00 0 0 0
168 2 1.3419984854624138e+01 2.2584185271494799e+00 2.9422761970357598e+00 0 0 0
255 2 1.0481666560160892e+01 1.0953998033898436e+01 2.9682401150340718e+00 0 0 0
335 2 1.3928280737786308e+01 1.1186560260410825e+01 2.2773699395843665e+00 0 0 0
332 2 1.6888282203509263e+01 1.0570878319483720e+01 1.5790177570819173e+00 0 0 0
180 2 -3.2897550362472061e-01 9.9946940269693592e+00 4.9984652727796766e+00 0 0 0
580 1 3.3473211912050225e+00 6.9539340744734879e-01 9.4973808696958795e+00 0 0 0
73 1 5.3196128422639735e+00 9.5011391742189144e-01 5.0940740636596855e+00 0 0 0
183 2 -3.8366950807977549e+00 1.0255198851622438e+01 1.8945108043021211e+01 0 0 0
184 1 3.2511004774291137e+00 8.3461378763690597e+00 2.3552907838685622e+00 0 0 0
185 2 3.2781615057538995e+00 7.6713616623570111e+00 1.6583709038266781e+00 0 0 0
186 2 2.2533824103711693e+00 8.4563320456550546e+00 2.4097526210775557e+00 0 0 0
187 1 5.9507070695411113e-01 8.1292951477314439e+00 2.6184689724789152e+00 0 0 0
188 2 -1.3292017111491850e-01 8.7617999996382565e+00 2.4410964827910249e+00 0 0 0
189 2 4.2987663042817026e-01 7.3758302463818080e+00 2.0488802793690590e+00 0 0 0
190 1 -1.6512698212889054e-01 8.0190696845320737e+00 7.2036387625687484e+00 0 0 0
191 2 1.5742279927414815e-01 7.5624718443724426e+00 6.3611038249453182e+00 0 0 0
192 2 -8.6105799192766619e-01 8.5703933440360540e+00 6.7748573855477261e+00 0 0 0
193 1 -1.7309872405287179e+00 9.7220228333419954e+00 5.8627951231891755e+00 0 0 0
194 2 1.5732220501753014e+01 9.2728953875704612e+00 5.5569641122681963e+00 0 0 0
195 2 -1.8603110858208471e+00 1.0562821602044115e+01 6.4322968170575576e+00 0 0 0
196 1 1.1906078207965760e+00 9.6100017049149624e+00 8.8220831899954799e+00 0 0 0
197 2 1.9238234317475245e+00 9.0389053670125836e+00 9.0613419874615140e+00 0 0 0
198 2 6.4481098532651382e-01 9.0629711545605876e+00 8.1942838026493678e+00 0 0 0
106 1 8.6423139337040933e+00 5.7645046972829994e-01 7.3157709812295382e+00 0 0 0
213 2 3.6750746336625131e+00 1.0188471038337441e+01 7.1896993297855198e+00 0 0 0
214 1 2.8380756778897909e+00 8.9235153921539947e+00 6.0160601545645456e+00 0 0 0
215 2 2.5950322411951166e+00 8.0633164987389332e+00 6.4258177426523133e+00 0 0 0
216 2 1.9966774057164434e+00 9.2351541790425333e+00 5.6716049452217918e+00 0 0 0
217 1 5.6789889187701643e+00 8.8685764949746044e+00 8.8912999515109092e+00 0 0 0
218 2 5.2510746963116199e+00 9.6549983442512435e+00 8.4703783837431548e+00 0 0 0
219 2 6.5403331151956019e+00 9.2809647684563714e+00 9.2912029337264261e+00 0 0 0
241 1 5.1464603049015620e+00 8.3737888602736330e+00 4.9701157105496048e+00 0 0 0
242 2 5.3871721184619537e+00 7.7956649984736757e+00 5.7152431972065081e+00 0 0 0
243 2 4.2611602338626957e+00 8.7110856948493254e+00 5.2869484876779440e+00 0 0 0
244 1 -3.3916566720580388e-01 8.0958016729974034e+00 1.9062999796780474e+01 0 0 -1
245 2 6.2260322355257891e+00 8.0678342262111222e+00 1.0535013690308708e+00 0 0 0
246 2 5.2505583132884670e-01 8.4824853287082025e+00 1.8948686118320385e+01 0 0 0
247 1 7.8657024480475997e+00 1.0304500490898949e+01 2.3241225344722660e+00 0 0 0
605 2 8.9634419795563538e+00 3.4353809357421039e-01 1.1310977394164619e+01 0 0 0
249 2 6.9587090569060557e+00 1.0137745823242062e+01 2.4387402843657902e+00 0 0 0
250 1 5.0964510128432305e+00 1.0072159524177037e+01 2.0166203127491276e+00 0 0 0
279 2 7.3086328783289023e+00 1.0487410842370412e+01 6.1649693971655877e+00 0 0 0
252 2 4.3722467876925855e+00 9.3836830089745469e+00 2.1111969416263179e+00 0 0 0
832 1 1.2226817703298543e+01 8.2518385526551263e+00 9.9954616609375222e+00 0 0 0
182 2 1.8993235723251989e+00 1.0757915896067269e+01 9.9042221399335195e-01 0 0 0
577 1 2.0513515320852509e+00 8.5670122984166919e-01 1.4731701232015274e+01 0 0 0
264 2 8.9344228856688197e+00 1.0046494094680677e+01 4.7612626109772371e+00 0 0 0
262 1 9.8721216286916711e+00 1.0451264723435482e+01 4.5764884295195811e+00 0 0 0
101 2 1.2366861152825930e+01 2.6251296820945846e-01 1.6995976163265365e+00 0 0 0
267 2 5.3596385809275393e+00 9.9920330751001778e+00 1.8805633941277257e+01 0 0 0
268 1 1.2239802005802543e+01 8.0333570972743757e+00 2.7101331139519025e+00 0 0 0
269 2 1.2281509224515032e+01 7.7376292134230473e+00 1.7400395448499828e+00 0 0 0
270 2 1.1337486153413758e+01 8.3101085020461607e+00 2.7786811642223830e+00 0 0 0
271 1 9.4502288875572180e+00 8.2891320967639395e+00 2.6932777877053988e+00 0 0 0
272 2 8.6859879205530177e+00 8.8631605171207113e+00 2.5539742875479083e+00 0 0 0
273 2 9.4130630621054561e+00 7.4232966797000302e+00 2.2389859300231296e+00 0 0 0
274 1 9.3698390809435637e+00 8.2235552450856524e+00 7.2635169536005781e+00 0 0 0
275 2 9.5173294799474473e+00 7.5477958461456600e+00 6.5487297464981102e+00 0 0 0
276 2 8.6510980246598113e+00 8.8450618922595226e+00 6.8674385603846781e+00 0 0 0
277 1 7.5711615951570232e+00 9.6830753848902855e+00 5.6497120438465469e+00 0 0 0
278 2 6.6972800701166628e+00 9.4792182801184826e+00 5.1930492944095441e+00 0 0 0
402 2 5.6517249861549290e+00 3.8646064766358235e-01 3.3831791263241171e+00 0 0 0
280 1 1.0328231876586182e+01 1.0032868860410032e+01 8.9377395243915885e+00 0 0 0
281 2 1.0863322261430021e+01 9.6923331823523036e+00 9.6631510551571616e+00 0 0 0
282 2 1.0206091223268315e+01 9.2956731687907244e+00 8.3135429051176839e+00 0 0 0
179 2 7.2917578973660180e-01 1.0982094555321954e+01 5.5497848772372622e+00 0 0 0
297 2 1.2906893543135919e+01 1.0064063218422723e+01 7.0246299906051473e+00 0 0 0
298 1 1.1964393356306701e+01 9.0102863066357184e+00 6.0237435908115886e+00 0 0 0
299 2 1.1650166448286194e+01 8.3027971377913268e+00 6.6475030862079194e+00 0 0 0
300 2 1.1253726608825527e+01 9.3810095006470249e+00 5.4254047465617301e+00 0 0 0
301 1 1.4862056533779457e+01 8.8266781167147776e+00 9.1573024897041879e+00 0 0 0
302 2 1.4760337397064935e+01 9.4793341051710343e+00 8.4022823263462705e+00 0 0 0
303 2 -2.5701755391110312e+00 9.0788497378619351e+00 9.6494074304048851e+00 0 0 0
325 1 1.4467371321959416e+01 7.9880444930518006e+00 5.1754944434267047e+00 0 0 0
326 2 1.4753522769172779e+01 7.5490545039774384e+00 5.9946167039483340e+00 0 0 0
327 2 1.3535868200906593e+01 8.2353972910681783e+00 5.4141517654049531e+00 0 0 0
328 1 1.5702294591969983e+01 8.4165928391038953e+00 4.3825273923716934e-01 0 0 0
329 2 1.5599395642566124e+01 7.9876179642210108e+00 1.3438948249111446e+00 0 0 0
330 2 1.6570249784674814e+01 8.8432433093605329e+00 3.6391990341112623e-01 0 0 1
331 1 1.6993445107729876e+01 9.9673225122073266e+00 2.4419519778161818e+00 0 0 0
804 2 7.8965309435785356e+00 9.5257501474801174e+00 1.4708576472043754e+01 0 0 0
333 2 1.6025456687736760e+01 9.9259891110920666e+00 2.6362933148374412e+00 0 0 0
334 1 1.4255631559440655e+01 1.0362944076503133e+01 2.8642370321697288e+00 0 0 0
17 2 2.9315808955634868e+00 5.2072123287174454e-01 1.7976287807895743e+00 0 0 0
336 2 1.3508198535929601e+01 9.7964866467684999e+00 2.9677802724760154e+00 0 0 0
662 2 1.0985333487642013e+01 2.4188485561069215e-01 1.5133374661272658e+01 0 0 0
835 1 1.3403874871159044e+01 1.0442486985723535e+01 1.1830794008152504e+01 0 0 0
505 1 -1.8244385847616140e+00 4.1900203555311233e+00 1.2027781289839599e+01 0 0 0
506 2 -1.1264090551291805e+00 4.7613858036959620e+00 1.2401073919860087e+01 0 0 0
507 2 -2.2721975220294639e+00 3.6789264206128762e+00 1.2740228877946707e+01 0 0 0
508 1 -1.7324127707577563e-01 6.1286121633205894e+00 1.3325201474196861e+01 0 0 0
509 2 6.4414032930604126e-01 5.9780688547616245e+00 1.3870695436002496e+01 0 0 0
510 2 2.4103670545789768e-02 6.9012599116812305e+00 1.2792155941267657e+01 0 0 0
511 1 -3.0012905612832648e+00 6.0644194933361408e+00 1.0723718136361587e+01 0 0 0
512 2 1.4474159601032568e+01 5.7983086014801879e+00 1.0206070515895748e+01 0 0 0
513 2 -2.5025271792515538e+00 5.2786234010989981e+00 1.1003987863738669e+01 0 0 0
514 1 -2.7425312748688704e+00 3.0381817491469518e+00 1.4265030105378498e+01 0 0 0
515 2 -2.4461401795658997e+00 3.6260399264582359e+00 1.4955182633418199e+01 0 0 0
516 2 -3.7234686532919827e+00 2.8215968274949064e+00 1.4468212320885868e+01 0 0 0
517 1 -1.0701042434821382e+00 2.8620146739337518e+00 9.7807469606094983e+00 0 0 0
518 2 -1.2023147930077607e+00 3.0204557676357040e+00 1.0725259427780193e+01 0 0 0
519 2 -1.3376032670702331e-01 2.6878572854894234e+00 9.6524293596256445e+00 0 0 0
520 1 1.9227989912147869e-01 1.0217805980692414e+00 1.2302982216073195e+01 0 0 0
178 1 6.4140193241658605e-01 1.0274901680483580e+01 4.8777590366779791e+00 0 0 0
522 2 -6.8969942506414483e-01 1.1770798362657207e+00 1.2678943368892314e+01 0 0 0
523 1 -2.7139457363422084e+00 9.4578746296632521e-01 1.2310051053116982e+01 0 0 0
524 2 -3.4218577537931041e+00 1.5682104326090613e+00 1.2211348023711093e+01 0 0 0
830 2 1.1087243786207871e+01 7.6111621717916620e+00 1.5045539252824911e+01 0 0 0
807 2 -5.7896346902054514e+00 9.1157768212415515e+00 1.8721915170049041e+01 0 0 0
528 2 -4.1689330278183458e+00 1.2039447696274470e+00 1.6155655828684047e+01 0 0 0
529 1 -5.1004063628874956e+00 2.2493454535349322e+00 1.5170499914991296e+01 0 0 0
530 2 1.2294482637033791e+01 1.9489044743137363e+00 1.4776256352328444e+01 0 0 0
531 2 -5.3214098056694699e+00 2.8578512692604630e+00 1.5907254871553265e+01 0 0 0
532 1 -2.2098017113575539e+00 2.5284314184152819e+00 1.8131698162154013e+01 0 0 0
533 2 -1.5174892407673877e+00 1.8971749792750956e+00 1.8464951132747633e+01 0 0 0
534 2 -2.8754779194325510e+00 1.9545109723497771e+00 1.7644981861733466e+01 0 0 0
535 1 -2.5778285824799845e+00 7.0821350689142930e+00 1.4463546418581355e+01 0 0 0
536 2 -1.7813483716596754e+00 6.6460987716911513e+00 1.4210907764265869e+01 0 0 0
537 2 -2.8127054481811533e+00 7.5548491742826798e+00 1.3622250827369678e+01 0 0 0
538 1 -3.8622912076977416e+00 6.8144372533048116e+00 1.8840324699865388e+01 0 0 0
539 2 -4.8585424031207785e+00 6.7497559253871442e+00 1.8878616873523161e+01 0 0 -1
540 2 -3.7262801075334746e+00 7.2280912859540312e+00 1.7920092077735106e+01 0 0 0
541 1 -5.0897376714190150e+00 4.5267261304024089e+00 1.6796930827198445e+01 0 0 0
542 2 -4.1978388205765604e+00 4.8738629329997716e+00 1.6658893938533858e+01 0 0 0
543 2 -5.1087056846040291e+00 4.1409767645710378e+00 1.7717786459119854e+01 0 0 0
544 1 -2.2569608035608271e+00 4.6310587351981916e+00 1.6662488955417853e+01 0 0 0
545 2 -1.5966035325205565e+00 5.3059407889143912e+00 1.6806665196036189e+01 0 0 0
546 2 -2.0009553808023894e+00 3.8238659693690424e+00 1.7138877810953538e+01 0 0 0
547 1 9.8255668299930843e-01 3.6096094409058481e+00 1.6798982473608724e+01 0 0 0
548 2 1.4435409309791183e+00 4.2035793874923675e+00 1.6131380980156138e+01 0 0 0
549 2 3.5920576727105313e-01 3.0897659982644057e+00 1.6239721238037106e+01 0 0 0
550 1 -6.5661854522734231e-01 1.7484739271260858e+00 1.5270775605369607e+01 0 0 0
551 2 -9.9127054252477187e-01 1.2279833703279242e+00 1.5982630664256058e+01 0 0 0
552 2 -1.5165917203178836e+00 2.0969076245577165e+00 1.4911300198318800e+01 0 0 0
553 1 2.3194246659606881e+00 1.7799310812118678e+00 1.8433538076839117e+01 0 0 0
554 2 2.0376070338488494e+00 2.4864590802322781e+00 1.7797880711523209e+01 0 0 0
555 2 3.1455545283539994e+00 2.1491686120038835e+00 1.8818209244183368e+01 0 0 0
556 1 1.9717605525249704e+00 4.8383060017512074e+00 1.4550639349424301e+01 0 0 0
557 2 2.9461894737859771e+00 5.0621823311635765e+00 1.4416240240553350e+01 0 0 0
558 2 1.8216464310782170e+00 4.2816532282229298e+00 1.3726692025411216e+01 0 0 0
559 1 7.4292344354287696e+00 4.6663958402773531e+00 2.8195386919263732e-01 0 0 1
560 2 -2.2010070270849447e-01 4.8440869144284600e+00 1.9146090461059085e+01 0 0 -1
561 2 1.1247342531456654e+00 4.3950630565271567e+00 1.8440239351111639e+01 0 0 0
562 1 -4.4721484660261268e-01 6.5653623128753926e+00 1.6746670884195723e+01 0 0 0
563 2 5.2516283604462810e-01 6.5307063440160853e+00 1.6751034771133643e+01 0 0 0
564 2 -6.2452723478874539e-01 6.8267035557408278e+00 1.7673083717636153e+01 0 0 0
565 1 2.4730894978348621e+00 7.0698320050418459e+00 1.6464951703659473e+01 0 0 0
566 2 2.6555244128353337e+00 7.8021330856640505e+00 1.7148188248263381e+01 0 0 0
567 2 2.9738618997809274e+00 6.2703585000524473e+00 1.6856531595778314e+01 0 0 0
568 1 2.8048786434750550e+00 7.1987398073160964e+00 1.2227039166578530e+01 0 0 0
569 2 3.4709699402330578e+00 6.6134937341473465e+00 1.2552241070805023e+01 0 0 0
570 2 2.5672858529457212e+00 7.7930664390743347e+00 1.2961827615576906e+01 0 0 0
571 1 4.3915111853818933e+00 5.3694621224948493e+00 1.3366675708985960e+01 0 0 0
572 2 4.6313420830026315e+00 4.5056997074203293e+00 1.2964247373596923e+01 0 0 0
573 2 5.1479481897792869e+00 5.7863867282666277e+00 1.3779957407935521e+01 0 0 0
574 1 1.3244301926664801e+00 5.3032462757940833e+00 1.0708390134943253e+01 0 0 0
575 2 1.5349013876927877e+00 5.7890022307139590e+00 1.1541325447046363e+01 0 0 0
576 2 5.4979530816230904e-01 5.7043876496711352e+00 1.0235398299925194e+01 0 0 0
685 1 -1.1648183684402125e+00 1.0524890398899597e+01 9.6780104690555486e+00 0 0 0
840 2 9.8422187089149240e+00 9.8845928812252133e+00 1.2183462017773797e+01 0 0 0
579 2 1.1668876979766374e+00 1.3064776748287148e+00 1.4747739469466627e+01 0 0 0
803 2 8.2187719058227167e+00 8.5602570900805439e+00 1.5979730613907195e+01 0 0 0
805 1 1.1644331320696306e+01 8.6566908578839730e+00 1.8333211063030813e+01 0 0 0
582 2 4.1447919005405396e+00 1.2183232665249468e+00 9.2673685209986729e+00 0 0 0
583 1 4.3793262080075923e+00 2.9377572750819683e+00 1.1979656743329643e+01 0 0 0
584 2 4.3960659929274168e+00 3.4455259351382104e+00 1.1126534782370655e+01 0 0 0
585 2 3.3856680236803625e+00 2.6979092303967698e+00 1.1990062548192727e+01 0 0 0
586 1 1.6149794070893284e+00 3.2544486170046385e+00 1.2407520535652298e+01 0 0 0
587 2 1.4253099150163306e+00 3.8355876107628188e+00 1.1616256060760008e+01 0 0 0
588 2 9.9427400059679982e-01 2.4578066788522341e+00 1.2418718575321616e+01 0 0 0
589 1 7.3468134849519640e+00 4.5456001872851779e+00 1.2178617291688793e+01 0 0 0
590 2 8.0313316346675432e+00 5.1389426156532112e+00 1.2621477111385582e+01 0 0 0
591 2 6.9019959734842979e+00 4.0515328626991725e+00 1.2837156755583205e+01 0 0 0
592 1 9.1868106967237608e+00 6.0440426236557299e+00 1.3529485560524758e+01 0 0 0
593 2 9.9720761687411770e+00 5.5676653679438726e+00 1.3770650917256775e+01 0 0 0
594 2 9.3565562403379268e+00 6.8396879854299275e+00 1.2976174916649047e+01 0 0 0
595 1 6.0846322844958411e+00 6.4131942833932447e+00 1.0585852457263215e+01 0 0 0
596 2 5.3081248771541816e+00 5.8749078613029688e+00 1.0325061742024065e+01 0 0 0
597 2 6.3900940664311729e+00 5.9026759103099158e+00 1.1295745324146662e+01 0 0 0
598 1 6.4016088508928757e+00 3.2135186714188797e+00 1.4472062911989566e+01 0 0 0
599 2 6.6831161331194195e+00 3.8063451591495414e+00 1.5131379932038808e+01 0 0 0
600 2 5.4755640711346230e+00 2.9561620493069887e+00 1.4597176994667619e+01 0 0 0
601 1 7.5527916296784090e+00 3.2255524070313775e+00 9.7269265841495560e+00 0 0 0
602 2 7.4907538257130799e+00 3.8550496902259352e+00 1.0513291264562445e+01 0 0 0
603 2 8.5192455244902252e+00 2.9916781661965706e+00 9.7196602451851568e+00 0 0 0
604 1 8.8912163218610623e+00 7.9619428445052765e-01 1.2195865187094954e+01 0 0 0
248 2 7.9134595649373969e+00 1.0812665396710646e+01 1.4861903179017075e+00 0 0 0
606 2 7.9234803462141041e+00 9.5761607617945854e-01 1.2417067177871285e+01 0 0 0
607 1 6.0337262323930556e+00 7.3772365996554123e-01 1.2467430582600324e+01 0 0 0
608 2 5.5594838175437395e+00 1.5679205927818638e+00 1.2251462981905867e+01 0 0 0
831 2 1.0111037805067628e+01 8.6648516791192716e+00 1.4523622852802969e+01 0 0 0
802 1 8.5913561450868592e+00 9.0791455491940418e+00 1.5263672926293395e+01 0 0 0
525 2 -2.8339496263432542e+00 3.2938628494211930e-01 1.1570835944869167e+01 0 0 0
613 1 4.1083654371229859e+00 2.3629172363424193e+00 1.5469841388285175e+01 0 0 0
614 2 3.2377267690128146e+00 1.9632624203086568e+00 1.5210592529478523e+01 0 0 0
615 2 3.9833861518680287e+00 3.1939793107595542e+00 1.6037146231366751e+01 0 0 0
616 1 7.0469274080771349e+00 2.5741043258036624e+00 1.8094586256905529e+01 0 0 0
617 2 7.6104287143500091e+00 1.9475836321065885e+00 1.8589549835335070e+01 0 0 0
618 2 6.5430172042850092e+00 1.8872670327645429e+00 1.7520972843282838e+01 0 0 0
619 1 6.4084458619643883e+00 6.8330876404546448e+00 1.4574158514681560e+01 0 0 0
620 2 7.3062343728856041e+00 6.4841763602913671e+00 1.4292200667343129e+01 0 0 0