LAMMPS data file via write_data, version 15 Apr 2020, timestep = 1146000

1920 atoms
2 atom types

3.9308002273296339e-02 2.4685096997728117e+01 xlo xhi
6.2974240095753586e-02 2.4661430759898934e+01 ylo yhi
-9.6305473912980943e-02 2.2888677473918861e+01 zlo zhi
2.2908091281409311e-02 -1.4959953502722426e-02 2.1770000699549871e-01 xy xz yz

Masses

1 16
2 2

Atoms # atomic

1 1 4.6571458466654994e+00 1.9371987606829884e+00 4.4784266816677780e+00 0 0 0
2 2 5.3340316180849703e+00 2.0840216866625263e+00 3.7707354595456319e+00 0 0 0
3 2 4.9105000703283972e+00 1.1907395525818216e+00 5.0867762372545249e+00 0 0 0
4 1 2.9055494246582794e+00 1.8858725281386590e+00 2.2858678086454556e+00 0 0 0
1597 1 1.2208645999306043e+01 1.0928706772473381e+01 2.0806759339250434e+01 0 0 0
6 2 3.2082418863145969e+00 2.0724767811831017e+00 3.1541078633640196e+00 0 0 0
7 1 6.0718385097572876e+00 4.9256292848072567e+00 3.7995628044386183e+00 0 0 0
8 2 5.1135809192224473e+00 4.8474154308866577e+00 3.8670069587422820e+00 0 0 0
9 2 6.4858923321644451e+00 4.1806519768975283e+00 4.2394154852495758e+00 0 0 0
10 1 3.2506480989865709e+00 4.6535942092304579e+00 3.5084542423696918e+00 0 0 0
11 2 2.7835754203163789e+00 3.9487481650532685e+00 3.9917993685734263e+00 0 0 0
12 2 2.9959724258846427e+00 5.5062239805197812e+00 3.8679703423872502e+00 0 0 0
13 1 1.6026289723289877e+00 3.0688278997727969e+00 5.0250887324988422e+00 0 0 0
14 2 1.4839635301645553e+00 2.1643598950521179e+00 5.4305142916229823e+00 0 0 0
15 2 1.5747286147666308e+00 3.7164382785451497e+00 5.7583269346434891e+00 0 0 0
699 2 2.4497791766500845e-01 1.1527396965002501e+01 1.0096054901905203e+01 0 0 0
17 2 1.0966770893775577e+00 1.6566235712052533e+00 2.2695250634125554e+00 0 0 0
19 1 4.5060350875389323e+00 3.3036421738261850e+00 6.6265666340172835e-01 0 0 0
20 2 3.8055183449140841e+00 3.0657607122060564e+00 1.2686231018437513e+00 0 0 0
21 2 4.5430363723770197e+00 4.2127633515353331e+00 4.2353414949196710e-01 0 0 0
22 1 1.4593293011783222e+00 4.6842812692092481e+00 1.4398287609605442e+00 0 0 0
23 2 2.2149362641473047e+00 4.7196679448929721e+00 2.0722445265175655e+00 0 0 0
24 2 1.6030048563702020e+00 3.8947571367758798e+00 9.0226661877890346e-01 0 0 0
25 1 4.5822946082645251e+00 6.1060965631325690e+00 4.9153802510505507e-01 0 0 0
26 2 3.7563926607097811e+00 6.3607304152409503e+00 9.0401799647490000e-01 0 0 0
27 2 4.6181023520365718e+00 7.0118891777554930e+00 2.2750298893755183e+01 0 0 0
16 1 1.2462785395953477e-01 1.5746752127758734e+00 2.2391967171641776e+00 0 0 0
31 1 1.0568571468696657e+01 1.4445160832160118e+00 4.3871465148277533e+00 0 0 0
32 2 1.0366091070166844e+01 2.2652674044540362e+00 4.9290363432443662e+00 0 0 0
1347 2 5.3871118961208468e+00 6.4476964219092636e-01 1.2575148947186927e+01 0 0 0
34 1 9.2410931311498565e+00 1.3240561724488689e+00 2.0810511133238152e+00 0 0 0
1578 2 8.0108821228338761e-02 7.3045741842027416e+00 1.9074595810203110e+01 1 0 0
36 2 9.6092604631563017e+00 2.1187403742089708e+00 1.5777722253775850e+00 0 0 0
579 2 9.0771904759786443e-02 4.7209997083440953e+00 8.1898588898665619e+00 0 0 0
39 2 1.1117524079704204e+01 4.5469405231532916e+00 3.2923077764124442e+00 0 0 0
40 1 9.3694581264941164e+00 4.5731647177458470e+00 3.5410776002673439e+00 0 0 0
41 2 8.9990039338922578e+00 4.6714361454735611e+00 2.6973591937224857e+00 0 0 0
42 2 8.8609616991288380e+00 3.8033535913377436e+00 3.8817067051387677e+00 0 0 0
43 1 7.6404521216842598e+00 3.1111551154236929e+00 4.8953395325381592e+00 0 0 0
44 2 7.7327747916538270e+00 3.3948098948857179e+00 5.8451164479530711e+00 0 0 0
45 2 7.6999221347549005e+00 2.1910733519679897e+00 5.0152953500833286e+00 0 0 0
46 1 6.3090432398499692e+00 1.5680832160283245e+00 2.0277028249854112e+00 0 0 0
47 2 7.2650662191946536e+00 1.3204148362484012e+00 1.8849906348898300e+00 0 0 0
48 2 5.9238023071545181e+00 2.2311249778315321e+00 1.3326886611689064e+00 0 0 0
49 1 1.0666864162144330e+01 3.1428108267253578e+00 6.0959662531412662e-01 0 0 0
50 2 1.1408813867398493e+01 2.8226933786390873e+00 1.1330068755549030e+00 0 0 0
51 2 1.0849080554165315e+01 2.9396321363992501e+00 2.2712502210326974e+01 0 0 0
52 1 7.6588101757930094e+00 4.7109032116468388e+00 1.4316957836775166e+00 0 0 0
53 2 7.4554643702479693e+00 3.8937340812999155e+00 9.1157315532918859e-01 0 0 0
54 2 6.9590368899265176e+00 4.6756470423856538e+00 2.1589569572875198e+00 0 0 0
55 1 1.0943010889212552e+01 5.8130559293715338e+00 5.5539913691046283e-01 0 0 0
56 2 1.0263763825134392e+01 6.3627723996923020e+00 9.6258419073875245e-01 0 0 0
57 2 1.0665229799735361e+01 4.8748201579748374e+00 5.6816795933282449e-01 0 0 0
496 1 9.1734799959877739e-02 1.6024229296198051e+00 7.7413941069359744e+00 0 0 0
1058 2 4.6632447604724803e-01 4.3538477448749120e+00 1.5567261432412243e+01 1 0 0
1608 2 7.4328454205696959e+00 8.1351675478854144e+00 1.9584806254751289e+01 0 0 0
531 2 1.0606152354383781e+01 4.1866912815947765e+00 6.5997535993012093e+00 0 0 0
121 1 4.2713831069050912e+00 7.7594569396707662e+00 4.3081927005825635e+00 0 0 0
122 2 5.0353894518060471e+00 7.6866793381626364e+00 3.7614976239747260e+00 0 0 0
123 2 3.5240853973216373e+00 7.6276646326891528e+00 3.7255010784873783e+00 0 0 0
124 1 2.9473838797627709e+00 7.7213098839484973e+00 1.8887181137151055e+00 0 0 0
125 2 3.3452306879512257e+00 8.5921949741123189e+00 1.5661934519612293e+00 0 0 0
126 2 1.9496397531626051e+00 7.7586128220359321e+00 1.8598929782115790e+00 0 0 0
127 1 6.1646275740369134e+00 1.1086415378989969e+01 3.2757147237688278e+00 0 0 0
128 2 6.4198938256126974e+00 1.0313595035061471e+01 3.8000725767469823e+00 0 0 0
129 2 5.2041721809110646e+00 1.1138700487166647e+01 3.3814633624303889e+00 0 0 0
130 1 3.4573197872875081e+00 1.0909697331221945e+01 3.4843538303243666e+00 0 0 0
131 2 3.1290237176495701e+00 1.0138241476354366e+01 3.9734883140313784e+00 0 0 0
132 2 3.1840541995921674e+00 1.1029278394070294e+01 2.5474690227426313e+00 0 0 0
133 1 1.6956067061429250e+00 9.2500522793854074e+00 4.9461713047504663e+00 0 0 0
134 2 1.6350433356456051e+00 9.7035531960518338e+00 5.8190573931931651e+00 0 0 0
135 2 1.3117622979860672e+00 9.8859938961687490e+00 4.3259277454613931e+00 0 0 0
1456 1 3.8047054639805883e-01 1.6234874950749587e+00 1.9338221638406186e+01 0 0 0
139 1 4.7460004149503288e+00 9.2782353742687746e+00 7.4560524397645744e-01 0 0 0
140 2 4.8465495214998962e+00 1.0249607899773959e+01 5.9437126367186910e-01 0 0 0
141 2 5.3960810386266109e+00 8.9800850735015256e+00 1.3339375716289372e+00 0 0 0
142 1 1.8573269184079779e+00 1.0906588808369539e+01 1.3781284171566406e+00 0 0 0
143 2 1.8442333837122133e+00 1.0166606648541803e+01 7.6808878490909926e-01 0 0 0
144 2 1.6658372963971539e+00 1.1666144582073608e+01 6.7152978666968721e-01 0 0 0
1345 1 4.6814466043551652e+00 2.6674496451645680e-01 1.2104992683435704e+01 0 1 0
148 1 1.7172571986725662e+00 6.5892358728161460e+00 4.9321553958860109e+00 0 0 0
1346 2 3.8929287094158518e+00 5.7791520256423046e-01 1.2604962326323593e+01 0 0 0
150 2 1.5677326943767786e+00 7.5077638749294255e+00 5.1729909226740940e+00 0 0 0
151 1 1.0483727841586170e+01 7.8275582277741274e+00 4.1580314733991681e+00 0 0 0
678 2 1.2179993032995730e+01 6.9902323947601070e+00 7.0469109168788853e+00 0 0 0
153 2 1.0737763374078620e+01 8.5212609051231496e+00 4.7473648534994179e+00 0 0 0
154 1 9.1085457229924405e+00 7.4840567382984275e+00 1.7037486154731756e+00 0 0 0
155 2 9.6108444915898854e+00 8.3153727013688190e+00 1.4317050957072142e+00 0 0 0
156 2 9.2115342582384301e+00 7.5450973076205425e+00 2.6502800691328927e+00 0 0 0
1158 2 1.2056025310408517e+01 8.3254581935234100e+00 1.2854340787982082e+01 0 0 0
158 2 1.1360167199283863e+01 1.0585992684259507e+01 3.4916311745589352e+00 0 0 0
160 1 9.4891527939731830e+00 1.0657011096692553e+01 3.5931292666481647e+00 0 0 0
161 2 9.1115923698346890e+00 1.0460633158313849e+01 2.7034054064683986e+00 0 0 0
99 2 3.5175665542823881e-01 4.2345467701563226e+00 4.0968559259124291e+00 0 0 0
163 1 7.4888610731648546e+00 9.3917771860323960e+00 5.1027344994314445e+00 0 0 0
164 2 7.4254054741650251e+00 8.4721913894546752e+00 5.4019036627473742e+00 0 0 0
165 2 8.3441990675428084e+00 9.4923644093335184e+00 4.6338304148414897e+00 0 0 0
166 1 6.3081960628509970e+00 7.8098307838917664e+00 2.1380001009412610e+00 0 0 0
167 2 5.8380067441088270e+00 7.0374145956328258e+00 1.8399998491157956e+00 0 0 0
168 2 7.3153238919263410e+00 7.7742584535387484e+00 2.1293944806395020e+00 0 0 0
169 1 1.0842061256824566e+01 9.4247669155076430e+00 9.5072237410333438e-01 0 0 0
170 2 1.0731467906161422e+01 1.0379496239077278e+01 1.0132752815129014e+00 0 0 0
171 2 1.0927541110571541e+01 9.1851583416197879e+00 1.3902192374590408e-02 0 0 1
172 1 7.8462463172299239e+00 1.0657572607521479e+01 1.2526919462774400e+00 0 0 0
173 2 7.0711914810227405e+00 1.0812539741391342e+01 1.7965850630225912e+00 0 0 0
174 2 7.7418484044996640e+00 9.9093503571494264e+00 6.5624696528947568e-01 0 0 0
988 1 1.5997562733879951e+00 4.0177468631527719e-01 1.6233333017544155e+01 0 0 0
178 1 7.7899157715001577e+00 6.4965853391072930e+00 5.0684802214605371e+00 0 0 0
179 2 7.0129486362655662e+00 6.0378265684573718e+00 4.6798981530617203e+00 0 0 0
180 2 8.4742429450357175e+00 6.0058351266840315e+00 4.6925488003143982e+00 0 0 0
1259 2 8.4436942708229434e+00 1.2009942626468611e+01 1.5937523330214169e+01 0 0 0
1539 2 1.9545403837046102e-01 4.4924910852677575e+00 2.1353922260019484e+01 0 0 0
198 2 1.2142068968694105e+01 6.8488373968994622e+00 1.4924002757788992e+00 0 0 0
1589 2 6.7735044564684244e-01 6.3469840517790823e+00 2.1753239695515955e+01 0 0 0
1619 2 7.7358414463757059e+00 5.9690366631723668e+00 1.4834226417433224e-01 0 0 1
495 2 8.9579075067239589e-01 3.4121936910258848e+00 1.0765140008667649e+01 0 0 0
1618 1 7.7894132363194073e+00 6.4760924706720155e+00 2.2202583859756405e+01 0 0 0
1117 1 1.2073608411919595e+01 1.0963591658845374e+01 1.4921569927302970e+01 0 0 0
386 2 5.3465288565073887e+00 3.2928614956673735e-01 1.3060951189790369e+00 0 0 0
481 1 4.4938592264264781e+00 1.9536358358290835e+00 9.8781652831554965e+00 0 0 0
482 2 4.4185597984627893e+00 1.1653922868482793e+00 1.0471383737217263e+01 0 0 0
483 2 5.3216025030699257e+00 1.7944720151634117e+00 9.3852789224043782e+00 0 0 0
484 1 2.7903259112330465e+00 1.7654970588123888e+00 7.7730454983785373e+00 0 0 0
485 2 3.3500056927767643e+00 1.7811052307449240e+00 8.5477324803646848e+00 0 0 0
486 2 1.8594333521584989e+00 1.7975213353272399e+00 8.0146656414310904e+00 0 0 0
487 1 6.0838968675884573e+00 4.9171502856186065e+00 9.2664377645099876e+00 0 0 0
488 2 5.1118669133411068e+00 4.9528942838397390e+00 9.3277084457671542e+00 0 0 0
489 2 6.3872725983379501e+00 4.1134587487905483e+00 9.7443513599349476e+00 0 0 0
490 1 3.2516972444650647e+00 4.7106751223380998e+00 9.2312262028401957e+00 0 0 0
491 2 3.0379951792941582e+00 3.9062538410587808e+00 9.6957175915547751e+00 0 0 0
492 2 2.5926993482802017e+00 5.3328024969507029e+00 9.6578796289633182e+00 0 0 0
493 1 1.7519293903076503e+00 3.0788694415246387e+00 1.1102801416329045e+01 0 0 0
494 2 1.7955198047999290e+00 3.4106073515800066e+00 1.1999062928510751e+01 0 0 0
1605 2 7.1946979571232657e+00 9.5439359265460215e+00 2.1405074820049126e+01 0 0 0
1613 2 7.7782130721277110e+00 1.1585187799605434e+01 1.8094986843647874e+01 0 0 0
499 1 4.5402525945581109e+00 3.6617786696468282e+00 6.4756746507467602e+00 0 0 0
500 2 3.8335161603808898e+00 3.1832785678976503e+00 7.0461780900686746e+00 0 0 0
501 2 4.6671267190119927e+00 3.0412315307775684e+00 5.6635491113701129e+00 0 0 0
502 1 1.2965826639353673e+00 4.8978079433327348e+00 7.1505346987942051e+00 0 0 0
503 2 1.9949717050259290e+00 4.7518122824036508e+00 7.7865412869778403e+00 0 0 0
504 2 1.6460446817104510e+00 5.5831794012038145e+00 6.5597119702433311e+00 0 0 0
505 1 4.4790704066690621e+00 6.3766223914885236e+00 6.6817480844538713e+00 0 0 0
506 2 4.4610244489881943e+00 5.4135443961678140e+00 6.5430474515315913e+00 0 0 0
507 2 4.2214055962026551e+00 6.8503188269091657e+00 5.8632525621670775e+00 0 0 0
5 2 3.4816943231023090e+00 1.1408342886681446e+00 1.9808634112419439e+00 0 0 0
509 2 1.6188011511160800e+00 1.3233462667412881e+00 1.0984394188654310e+01 0 0 0
511 1 1.0857828263082405e+01 1.5371339389580676e+00 9.7259394812505313e+00 0 0 0
512 2 1.0828435020326864e+01 8.1329955154213740e-01 1.0419413606294038e+01 0 0 0
513 2 9.9969313811529688e+00 1.5286531081530108e+00 9.2084044589160428e+00 0 0 0
514 1 8.8160483856185596e+00 1.6179210416809642e+00 7.9931722186419698e+00 0 0 0
515 2 7.8584717110731175e+00 1.5657657487701540e+00 8.0835764400474499e+00 0 0 0
1571 2 2.8606735208981431e+00 1.1675231142793589e+01 2.1102691827027520e+01 0 0 0
538 1 7.7774328237285379e+00 6.2239781363835600e-01 1.0623097882682444e+01 0 0 0
520 1 9.3827120061244838e+00 4.5716379900309496e+00 9.1811274636702773e+00 0 0 0
521 2 1.0371731484030047e+01 4.5976602843809440e+00 9.0605011337818588e+00 0 0 0
522 2 8.8960256615085029e+00 4.6101691240826339e+00 8.3121401327932141e+00 0 0 0
523 1 7.5267279481468083e+00 3.2915034565773698e+00 1.0717257388856037e+01 0 0 0
524 2 7.4231407342563767e+00 2.2975002855468900e+00 1.0833043657571041e+01 0 0 0
525 2 8.1095062602101553e+00 3.5409705517136842e+00 9.9690456870996105e+00 0 0 0
526 1 6.0767443316090048e+00 1.7415748009479282e+00 7.9367865128738089e+00 0 0 0
527 2 5.6977094166115050e+00 1.0748893580929968e+00 7.3492532710841587e+00 0 0 0
1105 1 4.6815290296174137e+00 1.2260833620820330e+01 1.2109254823882948e+01 0 0 0
529 1 1.0389054070965100e+01 3.2737529529342160e+00 6.3144029432199877e+00 0 0 0
530 2 9.7280431641319698e+00 2.8794217485651576e+00 6.9385509517102886e+00 0 0 0
1739 2 7.0596056168752472e+00 1.2218093911311948e+01 2.1425804440867250e+01 0 0 0
532 1 7.6615952952800619e+00 4.7099909079332010e+00 7.1375927835715416e+00 0 0 0
533 2 7.7344032280452160e+00 5.4214786583802779e+00 6.3974130992415663e+00 0 0 0
534 2 6.8757006159125345e+00 4.9374570995652372e+00 7.7541562876022478e+00 0 0 0
535 1 1.0656480729430701e+01 6.1576993178398407e+00 6.4122341872697231e+00 0 0 0
536 2 1.0028518588956516e+01 6.7351708857777535e+00 6.9269093294162376e+00 0 0 0
537 2 1.0562352640350257e+01 6.5552022609608018e+00 5.5579908011907166e+00 0 0 0
1607 2 6.0378953277665950e+00 8.2316311558791782e+00 2.0261068053093570e+01 0 0 0
614 2 6.1668583230215346e-01 9.1907075173394173e+00 1.0920376793483719e+01 0 0 0
1472 2 1.1761063292047291e+01 1.8729919302231037e+00 2.0704137067326908e+01 0 0 0
1468 1 1.2094154923432856e+00 5.9392408666973961e-01 2.2468805236992431e+01 0 0 0
1612 1 7.8963838115230001e+00 1.0902806237346876e+01 1.8747587138981284e+01 0 0 0
601 1 4.7967555882768425e+00 8.0123663232038531e+00 1.0182807439960756e+01 0 0 0
602 2 5.5496990889382483e+00 8.2479356216864446e+00 9.6386813037576875e+00 0 0 0
603 2 4.7362197346195867e+00 8.7536021255941616e+00 1.0822896495175893e+01 0 0 0
604 1 3.0001517331077396e+00 8.0294759307263490e+00 8.2328210089179557e+00 0 0 0
605 2 3.3032702109397345e+00 8.2383158948390403e+00 9.1283319022611522e+00 0 0 0
606 2 3.5450406567022048e+00 7.2796330844478794e+00 7.8698718339354929e+00 0 0 0
607 1 6.0867130890682803e+00 1.1065667174493443e+01 9.4415946289230206e+00 0 0 0
608 2 6.4650976327565974e+00 1.0980854071032434e+01 8.5179682033153483e+00 0 0 0
609 2 6.4831135191388523e+00 1.0355174358007723e+01 1.0014403337524065e+01 0 0 0
610 1 3.2535159918201888e+00 1.0827648638867466e+01 9.6478602178979234e+00 0 0 0
611 2 3.0385115322627874e+00 1.0622651089469111e+01 8.6935993225796153e+00 0 0 0
612 2 4.2438018330800604e+00 1.0902552793708827e+01 9.7209822172252522e+00 0 0 0
613 1 1.5267653855422378e+00 9.0824389831632963e+00 1.1185093510964506e+01 0 0 0
1576 1 1.1087625700948539e-01 8.1140667372412683e+00 1.9617093442684734e+01 0 0 0
615 2 2.1697259326316609e+00 9.6046668807173994e+00 1.0642372400479941e+01 0 0 0
1092 2 2.8983197729449590e+00 1.1055822607583332e+01 1.4369597926518658e+01 0 0 0
618 2 1.1754864055786487e+00 8.0149173724834686e+00 8.2259406402025022e+00 0 0 0
619 1 4.7308369645119033e+00 9.4162803211818087e+00 6.4691472422695471e+00 0 0 0
620 2 4.6519695287471299e+00 9.0648805411222177e+00 5.5636728158650035e+00 0 0 0
621 2 4.0093027756759376e+00 9.1017515483712383e+00 7.0483030933362514e+00 0 0 0
622 1 1.6799023867879426e+00 1.0938880724610190e+01 7.2113831879420802e+00 0 0 0
623 2 8.8200756792488078e-01 1.0874766134792582e+01 7.7968768631090102e+00 0 0 0
624 2 1.4842651028680864e+00 1.1714743948304724e+01 6.5724271383013981e+00 0 0 0
60 2 8.6758516477787069e+00 2.7252991955475836e-01 4.5089290321991218e+00 0 1 0
626 2 4.5147416423985778e+00 1.1352026818126514e+01 6.3742784154786438e+00 0 0 0
628 1 1.7425142915542216e+00 6.2915896254851091e+00 1.0709843718362038e+01 0 0 0
629 2 1.6070577624689162e+00 5.7337340535493313e+00 1.1537206149303209e+01 0 0 0
630 2 1.6317704052790147e+00 7.2633936997849942e+00 1.0951231139435007e+01 0 0 0
631 1 1.0961204348920631e+01 7.7073683917633007e+00 9.9316338163440339e+00 0 0 0
632 2 1.1110293520792549e+01 7.0294674674633457e+00 1.0632467509746816e+01 0 0 0
633 2 1.1776778380211542e+01 7.8624647388665521e+00 9.3510453122016521e+00 0 0 0
634 1 9.1767031180939611e+00 7.8945831358766938e+00 7.8438296396528626e+00 0 0 0
635 2 9.4997006003901365e+00 7.6211471986383819e+00 8.7369046636576631e+00 0 0 0
636 2 8.2374545276871398e+00 7.7091384181028255e+00 7.8570863305265757e+00 0 0 0
654 2 7.6622265735763877e+00 1.1980884332796036e+01 6.8738046925300962e+00 0 0 0
639 2 1.1208736744523430e+01 1.1041217664045686e+01 9.4991494012811319e+00 0 0 0
640 1 9.5392358462643401e+00 1.1153265068304565e+01 9.4983115374530573e+00 0 0 0
641 2 9.2104851526238196e+00 1.1162284695917419e+01 8.6184617143749414e+00 0 0 0
642 2 9.1269069399780118e+00 1.0358287334003016e+01 9.9259218874683164e+00 0 0 0
643 1 7.7064595952812178e+00 9.3725530328433226e+00 1.0714255455803855e+01 0 0 0
644 2 7.8207506400266400e+00 8.4361462840846997e+00 1.0835811494986189e+01 0 0 0
645 2 7.6784393877622756e+00 9.8120558026588984e+00 1.1614489870932127e+01 0 0 0
646 1 6.5641881549293775e+00 7.8876285869663425e+00 7.8136339637774492e+00 0 0 0
647 2 6.1089148996844793e+00 7.1678631607121304e+00 7.3296157944714002e+00 0 0 0
648 2 6.1872958877709632e+00 8.6330063570540645e+00 7.2928156488976086e+00 0 0 0
649 1 1.0874499956458932e+01 9.6574295814650188e+00 6.2730760108044938e+00 0 0 0
650 2 1.0952307165111286e+01 1.0635918752181778e+01 6.2272824329207292e+00 0 0 0
651 2 1.0008288264937027e+01 9.3923919914530636e+00 6.6648725879271051e+00 0 0 0
652 1 7.7894237794529158e+00 1.1086110781485459e+01 7.2466770468329740e+00 0 0 0
653 2 7.5550096586898263e+00 1.0550766760903862e+01 6.4801930309669915e+00 0 0 0
1260 2 6.9014197496193495e+00 1.2294567411785579e+01 1.6142176900482653e+01 0 0 0
1089 2 5.1008197466166836e+00 1.0967924682564050e+01 1.4996678647729942e+01 0 0 0
658 1 7.9684863982194614e+00 6.5457836579968864e+00 1.0758856557454985e+01 0 0 0
659 2 7.2512599641379625e+00 6.2045210927813681e+00 1.0168992310554289e+01 0 0 0
660 2 8.7290574287099485e+00 6.0265246963587673e+00 1.0372144776593377e+01 0 0 0
1610 2 1.0761112766276787e+01 9.0532831400211489e+00 1.7300547164764229e+01 0 0 0
1604 2 8.6460855397988965e+00 9.5247977408825104e+00 2.1725254967597103e+01 0 0 0
1135 1 1.0948772525337048e+01 1.2238806570053347e+01 1.2241426003685321e+01 0 0 0
779 2 8.2913986271644582e+00 1.2210723742567772e+01 1.0611183239011167e+01 0 0 0
1614 2 8.7520173554237122e+00 1.1025548516225790e+01 1.9221137748404818e+01 0 0 0
1611 2 1.1683937681384519e+01 9.1159710597950081e+00 1.8518000834364848e+01 0 0 0
1464 2 6.9723630339933662e-01 4.9534380878842654e+00 1.9096384845715829e+01 0 0 0
1616 2 1.0681930334836139e+01 1.1323880187895826e+01 1.7899291946809793e+01 0 0 0
1133 2 7.7596161927997320e+00 1.1626566676088579e+01 1.2410551774993415e+01 0 0 0
625 1 4.6911172907345859e+00 1.2301659268059755e+01 6.5178784205638252e+00 0 0 0
961 1 5.0037482470783132e+00 1.8453897746518915e+00 1.5551052873007707e+01 0 0 0
962 2 4.9522981863335653e+00 2.4734121615942186e+00 1.6312495268014015e+01 0 0 0
269 2 2.4129728654080420e+00 1.2086250531285918e+01 4.5585206723977620e+00 0 0 0
964 1 3.0357102862924292e+00 2.0204030436604872e+00 1.3588137113610381e+01 0 0 0
965 2 3.7093323907962472e+00 1.9134010840711349e+00 1.4323127225842814e+01 0 0 0
966 2 3.5419271004932913e+00 2.5299287652418396e+00 1.2907216670608443e+01 0 0 0
967 1 6.0491848407132407e+00 4.6410901348908178e+00 1.5173098309312786e+01 0 0 0
968 2 6.5645541633004170e+00 5.2763244085274401e+00 1.5680151878964521e+01 0 0 0
969 2 6.5448061280814036e+00 4.6966894130014003e+00 1.4320591523871162e+01 0 0 0
970 1 3.4155840729868925e+00 4.5209127302233787e+00 1.5118582608644250e+01 0 0 0
971 2 4.3983132016398976e+00 4.4653285668876865e+00 1.5091910518232357e+01 0 0 0
972 2 3.3637411692296713e+00 5.4738513430980156e+00 1.5184180000297228e+01 0 0 0
973 1 1.5313103422222940e+00 2.9773903694319088e+00 1.6511227108253429e+01 0 0 0
974 2 2.3494041014705660e+00 3.3913967210124252e+00 1.6142985955982187e+01 0 0 0
975 2 1.4333656610535019e+00 3.4246662092665314e+00 1.7341274802660891e+01 0 0 0
997 1 1.2277769933809251e+01 4.6991414766840585e+00 1.4628620793752981e+01 0 0 0
977 2 1.0066631094313132e+00 1.9432680356647511e+00 1.3878223291031940e+01 0 0 0
979 1 4.7437153179411276e+00 3.6431404039329185e+00 1.1910966655720379e+01 0 0 0
980 2 4.6917383627824032e+00 3.2561409774336130e+00 1.1043380215339900e+01 0 0 0
981 2 5.6084879192004049e+00 3.3444384228549140e+00 1.2204798055425480e+01 0 0 0
982 1 1.6304927845051227e+00 4.6329785110966180e+00 1.3053662340278077e+01 0 0 0
983 2 2.4546904345023091e+00 4.4913728628456759e+00 1.3575971288905176e+01 0 0 0
984 2 8.5404619386313030e-01 4.8759417650353516e+00 1.3618819745197026e+01 0 0 0
985 1 5.1545427242940587e+00 6.3267242496700362e+00 1.2194416468918828e+01 0 0 0
986 2 4.9548325582333961e+00 6.7913957800216043e+00 1.1332061594777395e+01 0 0 0
987 2 5.0209836416616449e+00 5.3456967433608824e+00 1.1995565954767997e+01 0 0 0
749 2 2.0464932130361739e+00 1.2459100352617167e+01 1.1488677152361873e+01 0 0 0
989 2 1.5629089016251669e+00 1.3676059800312750e+00 1.6485125899889404e+01 0 0 0
991 1 1.1101303245763562e+01 1.8732409521320676e+00 1.5803402441683755e+01 0 0 0
992 2 1.1017641573198613e+01 1.0156360780958658e+00 1.6287954269420240e+01 0 0 0
993 2 1.0458274036985715e+01 1.8072853622935976e+00 1.5086907325736615e+01 0 0 0
994 1 9.5812826222603302e+00 1.3935752780885311e+00 1.3560784943888969e+01 0 0 0
995 2 9.9355463652828373e+00 6.8940542273905581e-01 1.2978851824095035e+01 0 0 0
996 2 9.7725841602443939e+00 2.1934189813009457e+00 1.3123827273464402e+01 0 0 0
1602 2 9.1754558506297581e+00 1.1587041251916522e+01 2.1493796977125445e+01 0 0 0
998 2 1.1323313262878139e+01 4.5761204578391013e+00 1.4799449384332108e+01 0 0 0
1000 1 9.5611680453875856e+00 4.8651878747955264e+00 1.4920117245796597e+01 0 0 0
1001 2 9.3286978299994221e+00 3.9743001322709839e+00 1.5217612226253419e+01 0 0 0
1002 2 8.9629446352981219e+00 5.0487183708655863e+00 1.4081252431213802e+01 0 0 0
1003 1 8.1329317559140542e+00 2.9110618893345026e+00 1.6465997710545558e+01 0 0 0
1004 2 7.3291685810417748e+00 3.4350242303858098e+00 1.6558221069616973e+01 0 0 0
1005 2 8.6004304554068209e+00 2.9606918222616621e+00 1.7289720506950488e+01 0 0 0
1006 1 6.5464233693833638e+00 1.9707768342717389e+00 1.3335571594030247e+01 0 0 0
1007 2 6.1962324668502937e+00 1.9667595428972753e+00 1.4218461265072692e+01 0 0 0
1008 2 7.4498579407329171e+00 1.5755577648415022e+00 1.3462823900027942e+01 0 0 0
1009 1 1.0877179437897301e+01 3.2206657502681457e+00 1.1925962300700347e+01 0 0 0
1010 2 1.1693400825855804e+01 2.7885634494290219e+00 1.2270554657794582e+01 0 0 0
1011 2 1.0787226568278097e+01 2.7276937948876623e+00 1.1078748812265035e+01 0 0 0
1012 1 7.8647509695503182e+00 4.7162751721462941e+00 1.2726686017493378e+01 0 0 0
1013 2 7.7485869366771825e+00 4.0037926458378763e+00 1.2016641709096382e+01 0 0 0
1014 2 7.8851574039245600e+00 5.5273195128129355e+00 1.2174653221049157e+01 0 0 0
1015 1 1.0682307501013156e+01 6.0073031653414430e+00 1.2145977044549253e+01 0 0 0
1016 2 1.0628132856510746e+01 5.0183584825512328e+00 1.1943493906328396e+01 0 0 0
1017 2 1.1506483406139534e+01 6.1697251053508495e+00 1.2646600715346713e+01 0 0 0
35 2 9.5445569209168717e+00 1.4409867326369614e+00 3.0059981828513362e+00 0 0 0
1019 2 7.8836330631477223e+00 1.3318491978753786e+00 1.6314024323816714e+01 0 0 0
1109 2 1.1304605626001434e+00 6.1840058778355127e+00 1.5966735550619497e+01 0 0 0
416 2 1.1243319638971068e+01 6.4836501142717551e-01 2.2850955430520091e+01 0 0 0
1081 1 4.7714789918910601e+00 7.8736124768166462e+00 1.5941333875073767e+01 0 0 0
1082 2 5.5251178878405840e+00 7.8406560914348935e+00 1.5307721304183177e+01 0 0 0
1083 2 4.9255077496577426e+00 7.0578062459059749e+00 1.6502505903124444e+01 0 0 0
1084 1 3.0502328259444740e+00 7.6107784425203171e+00 1.3810195504710059e+01 0 0 0
1085 2 3.5308067541881001e+00 7.9482721625889603e+00 1.4628987365730417e+01 0 0 0
1086 2 3.7144371209275757e+00 6.9738692658548782e+00 1.3420989022235945e+01 0 0 0
1087 1 6.0595043857664868e+00 1.0849070672426182e+01 1.5048164111394755e+01 0 0 0
1088 2 6.1898691758352067e+00 1.0043208788163314e+01 1.5539509164458794e+01 0 0 0
1827 2 4.1535372032097442e+00 5.5436816620651408e-01 1.8183766558152485e+01 0 0 0
1090 1 3.3239732739166632e+00 1.0876562920364245e+01 1.5215966404579211e+01 0 0 0
1091 2 2.8327512109798691e+00 1.0167062381368540e+01 1.5596604717647811e+01 0 0 0
417 2 1.0234346184717721e+01 2.4403903660959492e-01 1.0983202305059561e+00 0 0 0
1093 1 1.4508898173723945e+00 9.3366909421766628e+00 1.6733359171414879e+01 0 0 0
1094 2 1.4368841488589479e+00 8.2908790438786983e+00 1.6687633902147230e+01 0 0 0
1095 2 6.4251172534105905e-01 9.5234246607024815e+00 1.6220169058288583e+01 0 0 0
38 2 1.2177960798807581e+01 5.5586069872640431e+00 3.8856332297238083e+00 0 0 0
1097 2 1.1909377827177676e+00 7.5072228480324990e+00 1.3947178326124885e+01 0 0 0
1099 1 4.4402565469883903e+00 9.5881665566851808e+00 1.2346046659679269e+01 0 0 0
1100 2 3.5943729354880571e+00 9.2038925894229475e+00 1.2640736902862818e+01 0 0 0
1101 2 4.2731277431542116e+00 1.0569786942327761e+01 1.2447130776924709e+01 0 0 0
1102 1 1.7475925813870070e+00 1.1215631630647382e+01 1.3134164681355623e+01 0 0 0
1103 2 1.5482967505747911e+00 1.0410101131731416e+01 1.2540856494246823e+01 0 0 0
1104 2 1.0614674298657163e+00 1.1191032681318783e+01 1.3818414264770791e+01 0 0 0
1518 2 1.1996986744016105e+01 2.3282648294246915e+00 1.8632483341939704e+01 0 0 0
1108 1 1.6702875549525269e+00 6.7836711838472503e+00 1.6557929399304829e+01 0 0 0
578 2 1.0014710114898659e-01 5.3994195563518996e+00 9.5466395402885240e+00 0 0 0
1110 2 1.6767658759056085e+00 6.0917916488403350e+00 1.7266664900436510e+01 0 0 0
1111 1 1.0950154969606267e+01 7.7513932359932971e+00 1.5687537367788828e+01 0 0 0
1112 2 1.1550932626654413e+01 7.5989182976465459e+00 1.4983416677150254e+01 0 0 0
1113 2 1.0198510234859439e+01 8.0375073450522443e+00 1.5154940618728801e+01 0 0 0
1114 1 9.0544916132983495e+00 7.9700655473760733e+00 1.3473806467191160e+01 0 0 0
1115 2 9.3907786875365549e+00 7.2178071293039512e+00 1.2976412924245055e+01 0 0 0
1116 2 8.1012280087244051e+00 7.8113477633258377e+00 1.3639343284974998e+01 0 0 0
33 2 1.1226680501475075e+01 1.7554534776034147e+00 3.7394549501466163e+00 0 0 0
1120 1 9.4210067967789097e+00 1.0888492410188435e+01 1.5303347428751399e+01 0 0 0
1121 2 9.1124268405044280e+00 1.0840761303644641e+01 1.4342273854522725e+01 0 0 0
1122 2 1.0399692969825697e+01 1.1053326037547670e+01 1.5183952470396807e+01 0 0 0
1123 1 7.6674469384981956e+00 9.1787134835844739e+00 1.6613146220832800e+01 0 0 0
1124 2 8.2853997867733007e+00 9.6935038005839242e+00 1.6038651814634640e+01 0 0 0
1125 2 7.7125498309418008e+00 9.7094274611428180e+00 1.7481816283775473e+01 0 0 0
1126 1 6.3534644160945737e+00 7.8664953162373168e+00 1.3751174380318592e+01 0 0 0
1127 2 6.1810412846249196e+00 7.0938504771791209e+00 1.3155286459207680e+01 0 0 0
1128 2 5.7823360192446858e+00 8.5391383417578819e+00 1.3297977101970396e+01 0 0 0
1129 1 1.0741622326882833e+01 9.5176314598224980e+00 1.1907528933179519e+01 0 0 0
1130 2 1.0069585368425821e+01 9.1363141723903425e+00 1.2421404834694703e+01 0 0 0
1131 2 1.0819781134903623e+01 8.8963152122229783e+00 1.1173779505468213e+01 0 0 0
1132 1 7.9315820284550664e+00 1.0880353581713781e+01 1.3029569084450959e+01 0 0 0
218 2 3.5419933393558151e-01 1.0764246037007339e+01 2.3841508939844696e+00 0 0 0
1134 2 7.1168641928051413e+00 1.0852070973761405e+01 1.3640134526763134e+01 0 0 0
516 2 8.9977547539641840e+00 7.5370051273023375e-01 7.6585334316980500e+00 0 0 0
1137 2 1.0710282542611273e+01 1.1295836449072096e+01 1.2068803780412745e+01 0 0 0
1138 1 7.8168892348599890e+00 6.3423160628226949e+00 1.6532718979070097e+01 0 0 0
1139 2 7.7454826223054551e+00 7.2662213325492386e+00 1.6753955019923307e+01 0 0 0
1140 2 8.5935078369356095e+00 6.1148390722859443e+00 1.5988805715330571e+01 0 0 0
1477 1 1.2189360449661679e+01 4.9309388501375286e+00 2.0496337035649031e+01 0 0 0
897 2 1.1277911709214340e+01 3.1170370841262440e-01 7.1084085761214384e+00 0 0 0
867 2 3.7858485912162703e+00 4.8144799731263055e-01 6.8686581451629198e+00 0 0 0
152 2 1.1081349406338385e+01 7.7552715998155435e+00 3.3951987938905668e+00 0 0 0
162 2 9.0425389996224173e+00 1.1526533065794190e+01 3.8278005827965305e+00 0 0 0
1178 2 3.3160951240780673e-01 1.1791438336059979e+01 1.5582399770344967e+01 0 0 0
1606 1 6.4425287994182767e+00 8.0721073744999767e+00 1.9370507092652481e+01 0 0 0
1018 1 7.8198253708211798e+00 3.8577159681225159e-01 1.6450160870857541e+01 0 0 0
780 2 6.8297539802463163e+00 1.2403893830882652e+01 1.0323419194649196e+01 0 0 0
1441 1 4.6180158243207057e+00 1.8225949202250449e+00 2.1691033788144079e+01 0 0 0
37 1 1.2073606983440458e+01 4.7077008318281406e+00 3.3767558385461762e+00 0 0 0
1443 2 4.5691549953697761e+00 2.5901836412088781e+00 2.2244543822720424e+01 0 0 0