LAMMPS data file via write_data, version 15 Apr 2020, timestep = 1154000

1920 atoms
2 atom types

1.2168835177392623e-01 2.4602716648231336e+01 xlo xhi
9.4219697121241452e-02 2.4630185302882673e+01 ylo yhi
1.5095645586272965e-02 2.2777276354412791e+01 zlo zhi
2.9942060631586742e-01 8.8528626245907446e-02 -1.7041864100124446e-01 xy xz yz

Masses

1 16
2 2

Atoms # atomic

1 1 4.6771983951186726e+00 1.5614503727687150e+00 4.3465034761924661e+00 0 0 0
2 2 5.4726493483998873e+00 1.3360081084244382e+00 3.8105498573839198e+00 0 0 0
3 2 4.4319556581613684e+00 7.3336713486282590e-01 4.8871794869624656e+00 0 0 0
4 1 2.8106430946359664e+00 1.7869950423555958e+00 2.2504046308876311e+00 0 0 0
1571 2 3.1021505426557177e+00 1.1719885351349872e+01 2.1211891595562911e+01 0 0 0
6 2 3.3587865491891096e+00 1.8643483604475100e+00 3.1709388270635408e+00 0 0 0
7 1 6.1231264495524149e+00 4.8461315701468122e+00 3.6877715222085965e+00 0 0 0
8 2 5.1232081569989223e+00 4.9781638485565205e+00 3.6580843246760368e+00 0 0 0
9 2 6.2815560652686981e+00 3.9602648307908042e+00 4.0876746288984140e+00 0 0 0
10 1 3.2595303422879747e+00 4.6883949329388690e+00 3.5963009008582696e+00 0 0 0
11 2 2.8223938573509635e+00 3.8814747781556864e+00 3.9912968857496169e+00 0 0 0
12 2 2.8716373160552964e+00 5.4538723690510782e+00 4.0979576241072344e+00 0 0 0
13 1 1.3972586552429924e+00 2.9542722328231701e+00 4.8036002419949808e+00 0 0 0
14 2 1.2819342955389392e+00 1.9921617129340206e+00 5.0136673563693890e+00 0 0 0
15 2 1.5253557799680337e+00 3.4459604446287000e+00 5.6188794877408945e+00 0 0 0
1468 1 1.4338601572362575e+00 9.7267264953739135e-03 2.2030697037937195e+01 0 0 0
17 2 1.2800995915782123e+00 1.5490165895028682e+00 2.3371275521656094e+00 0 0 0
19 1 4.7985489636495817e+00 3.3506774127166645e+00 9.9570665416490944e-01 0 0 0
20 2 4.0135091040144228e+00 2.9643078930329674e+00 1.4683031344397015e+00 0 0 0
21 2 4.5988180888861878e+00 4.3199307481697584e+00 1.0887332349084982e+00 0 0 0
22 1 1.5329349893155026e+00 4.7990978249370944e+00 1.4455750944206094e+00 0 0 0
23 2 2.3211766702309955e+00 4.7156669533921418e+00 2.0742982230278448e+00 0 0 0
24 2 1.4020404951110390e+00 4.0025185243997896e+00 8.3202978941947037e-01 0 0 0
25 1 4.6166181263780901e+00 5.9235606477982197e+00 9.7783746466891508e-01 0 0 0
26 2 4.1601225322819833e+00 6.5085793160686354e+00 1.5780920761777077e+00 0 0 0
27 2 4.3692465318394316e+00 6.2970652433267089e+00 8.2721199924328526e-02 0 0 1
1105 1 5.0144955172506602e+00 1.1887242826896109e+01 1.2253600288795120e+01 0 0 0
31 1 1.0911025369745754e+01 1.6887862116646417e+00 4.1388463816911063e+00 0 0 0
32 2 1.1046833237289970e+01 2.3209702126860714e+00 4.8575475013702620e+00 0 0 0
1178 2 4.4146103661975994e-01 1.1420414022457452e+01 1.5304901750072231e+01 0 0 0
34 1 9.1384634699796017e+00 1.6635218730631427e+00 2.1138186186096033e+00 0 0 0
145 1 4.8278034401223380e+00 1.2084381663944695e+01 1.0393830021921469e+00 0 0 0
36 2 9.4233117614708810e+00 2.3488244054677612e+00 1.5143303165128148e+00 0 0 0
1539 2 7.2948008781367424e-01 3.8185299614966226e+00 2.1212372389536341e+01 0 0 0
39 2 1.1291865594009478e+01 4.5938478680470380e+00 3.4718712341923235e+00 0 0 0
40 1 9.6853002357189446e+00 4.5762014615456730e+00 3.6997184682496829e+00 0 0 0
41 2 9.3961611801300773e+00 4.8177261902959092e+00 2.8179809959175848e+00 0 0 0
42 2 9.0100734822261899e+00 3.8992532199283749e+00 3.9712829264735339e+00 0 0 0
43 1 7.6776486353451849e+00 2.9254865457340840e+00 4.9853056602423189e+00 0 0 0
44 2 7.5927731720946934e+00 3.3669453638730658e+00 5.8753060792935248e+00 0 0 0
45 2 7.4958261252461176e+00 1.9904306177342621e+00 5.0703889028236873e+00 0 0 0
46 1 6.5170333198960515e+00 1.3640885106118981e+00 2.2612074222750489e+00 0 0 0
47 2 7.4863217621043336e+00 1.5571036558379094e+00 2.4708036655482126e+00 0 0 0
48 2 6.0948316004915419e+00 2.1938260916558407e+00 1.8329389255226840e+00 0 0 0
49 1 1.1206111867980278e+01 3.6624246788516017e+00 6.5252174033743593e-01 0 0 0
50 2 1.1802473794171403e+01 3.1259219328386831e+00 1.2056464985850215e+00 0 0 0
51 2 1.1172674251572866e+01 3.0374880248806955e+00 2.2578341389146672e+01 0 0 0
52 1 7.9718740951889879e+00 4.7685909987664212e+00 1.6606279217451212e+00 0 0 0
53 2 7.7974915736302597e+00 4.0502981849876729e+00 9.7815993979654114e-01 0 0 0
54 2 7.1960308061434120e+00 4.5484813845073226e+00 2.2118798654426839e+00 0 0 0
55 1 1.1212768515605097e+01 6.3132896241438496e+00 2.6827658776131996e-01 0 0 0
56 2 1.0578518325948405e+01 6.6536855498282446e+00 9.1603594799588683e-01 0 0 0
57 2 1.1184419903718155e+01 5.3090849438561190e+00 4.5694500108975239e-01 0 0 0
897 2 1.1610038448375546e+01 2.3118408480549518e-01 6.4696220539088394e+00 0 0 0
614 2 1.5222821920159058e+00 9.1103220611808045e+00 1.0035584279791937e+01 0 0 0
1608 2 7.6218000213142645e+00 7.4194397284600235e+00 1.9199018370763952e+01 0 0 0
531 2 1.1007279839715460e+01 4.3993287416519733e+00 6.1995880200537545e+00 0 0 0
121 1 5.1951917081832564e+00 7.7107156686693932e+00 4.4793007799704974e+00 0 0 0
122 2 5.9218294519452241e+00 7.8304076908794560e+00 3.8155017400318076e+00 0 0 0
123 2 4.3594558106439019e+00 7.7377740982487184e+00 3.9726492777719735e+00 0 0 0
124 1 3.4701337095194376e+00 7.6622947632139615e+00 2.5117023307448645e+00 0 0 0
125 2 3.7441375882466672e+00 8.4920415526666133e+00 2.0350725157864300e+00 0 0 0
126 2 2.4619117756218527e+00 7.7732882192977399e+00 2.4858686621118724e+00 0 0 0
127 1 6.5291780353479121e+00 1.0626973682272196e+01 3.3530044874753400e+00 0 0 0
128 2 6.8568956669086818e+00 9.8514517383170670e+00 3.9095778002543402e+00 0 0 0
129 2 5.5574292546253394e+00 1.0709483577059762e+01 3.2464082285793179e+00 0 0 0
130 1 3.8457769542994167e+00 1.0908104229262028e+01 3.4363895301345111e+00 0 0 0
131 2 3.5015679905965138e+00 1.0303265972745697e+01 4.0675647700040285e+00 0 0 0
132 2 3.2551351932795671e+00 1.0810926297824743e+01 2.6508292370623812e+00 0 0 0
133 1 1.7523258264694577e+00 9.1014864926030974e+00 4.8576285257856044e+00 0 0 0
134 2 1.8941510138909892e+00 9.4495545485986021e+00 5.7846145716007680e+00 0 0 0
135 2 8.2348163525044515e-01 9.4516148167538905e+00 4.6133024352107892e+00 0 0 0
1827 2 4.1024269151970758e+00 6.2550105175335202e-01 1.8607926713021222e+01 0 0 0
139 1 4.7786025199401152e+00 9.3738555822729808e+00 9.1060301061650262e-01 0 0 0
140 2 4.7583290182853615e+00 1.0413898183882294e+01 8.9385953186038858e-01 0 0 0
141 2 5.6394801077851389e+00 9.0465804009642206e+00 1.2585219673415791e+00 0 0 0
142 1 2.0236610673047082e+00 1.0582615130845092e+01 1.5302565076126133e+00 0 0 0
143 2 1.9250999484038207e+00 9.8546764801586111e+00 8.4258081601813339e-01 0 0 0
144 2 2.0659467349741361e+00 1.1434439505405724e+01 1.0077857337482039e+00 0 0 0
99 2 3.8083770094686897e-01 4.0298890263808538e+00 4.1256532321470543e+00 0 0 0
148 1 1.7456569681045506e+00 6.3539454953034973e+00 5.0630556160597351e+00 0 0 0
198 2 1.2426992302755140e+01 7.3930689372663965e+00 1.2960520582512511e+00 0 0 0
150 2 1.8270718064892129e+00 7.3157413633777475e+00 4.9153389961759331e+00 0 0 0
151 1 1.1034244561910533e+01 7.7841775621319034e+00 4.2703376515958915e+00 0 0 0
1229 2 1.6098859745733496e+00 1.1904827787051753e+01 1.7076370418944109e+01 0 0 0
153 2 1.1047013642356125e+01 8.5923258591906357e+00 4.8721188093622221e+00 0 0 0
154 1 9.3941343950769660e+00 7.6755810830377245e+00 2.2060619646749480e+00 0 0 0
155 2 9.6243301675897648e+00 8.4315891738093320e+00 1.5877014062636603e+00 0 0 0
156 2 9.9073364627461018e+00 7.8522474612138558e+00 3.0978809747675342e+00 0 0 0
637 1 1.2372955608590116e+01 1.0854358818842512e+01 9.3633864420825166e+00 0 0 0
158 2 1.1448959503752221e+01 1.1002118638327184e+01 3.4850365041527382e+00 0 0 0
160 1 9.7941917855236369e+00 1.0885936187918219e+01 3.5347833243229423e+00 0 0 0
161 2 9.2596922497012173e+00 1.0818334359359651e+01 2.7222046610391448e+00 0 0 0
162 2 9.6378607413614077e+00 1.1800629786577083e+01 3.9442594356689278e+00 0 0 0
163 1 8.0365986332354957e+00 9.2507793329591568e+00 4.9999214349201386e+00 0 0 0
164 2 8.1006574115041587e+00 8.2490612762733768e+00 5.0196944184635184e+00 0 0 0
165 2 8.8752353707556200e+00 9.5914017138980210e+00 4.5016063316668156e+00 0 0 0
166 1 6.6719580828849230e+00 7.7579587565370351e+00 2.2327529655502372e+00 0 0 0
167 2 6.2600371239254713e+00 6.8775374729737564e+00 2.0361657009311820e+00 0 0 0
168 2 7.6781546591583778e+00 7.6481891239078399e+00 2.3749663815741058e+00 0 0 0
169 1 1.0947608182397239e+01 9.4657718665654542e+00 7.1729233862278940e-01 0 0 0
170 2 1.0968623681766926e+01 1.0464902327204616e+01 7.2242155406977326e-01 0 0 0
171 2 1.1018310287155026e+01 9.0058365907815734e+00 2.2551987620272989e+01 0 0 0
172 1 8.1496965460444244e+00 1.1024907809095083e+01 1.3477042627824591e+00 0 0 0
173 2 7.3893989788566961e+00 1.0834122735969908e+01 1.9774475661893218e+00 0 0 0
174 2 8.1914255454839573e+00 1.0343008909712497e+01 6.5285777775684450e-01 0 0 0
697 1 4.1719577364025040e-01 1.0789703148468632e+01 9.1303705775216457e+00 1 0 0
178 1 7.8598560391450523e+00 6.4409414167834953e+00 5.2269005609932080e+00 0 0 0
179 2 7.0391825638929966e+00 5.9251059226070124e+00 4.8405450692323386e+00 0 0 0
180 2 8.5214919130852973e+00 6.1321660618342841e+00 4.5250846989669578e+00 0 0 0
218 2 6.2952381092759346e-01 1.0867512687792205e+01 2.7956700223885984e+00 0 0 0
300 2 7.5235538279298968e+00 1.2318864950308532e+01 4.2018321365791031e+00 0 0 0
867 2 3.5308903212321470e+00 2.2841578410651495e-01 7.0656707784121302e+00 0 0 0
1589 2 1.0626484643966532e+00 6.1594813686903320e+00 2.1465898561023558e+01 0 0 0
1619 2 8.1259299341223414e+00 6.1248372164589417e+00 3.1432202086178174e-01 0 0 1
495 2 1.4709098119141104e+00 3.1111402011853602e+00 1.0291204002209074e+01 0 0 0
1618 1 8.1943901124008409e+00 6.2727352707402506e+00 2.2119198296244271e+01 0 0 0
136 1 7.2009777176618273e-01 7.6596426789375869e+00 2.2218960729590007e+00 0 0 0
558 2 1.1866809871475169e+01 2.0439428325661426e+00 7.3006774010419546e+00 0 0 0
481 1 4.5879233309029708e+00 1.5142844812934808e+00 9.8581571655744984e+00 0 0 0
482 2 4.6257438300843372e+00 8.0596168348605990e-01 1.0566700326298847e+01 0 0 0
483 2 5.3430927896441212e+00 1.3639856750962975e+00 9.2115291817625966e+00 0 0 0
484 1 2.6054940603854808e+00 1.4810608718593328e+00 7.7439692349231359e+00 0 0 0
485 2 3.1449977282948405e+00 1.4377307084966857e+00 8.5513199589876550e+00 0 0 0
486 2 1.6670230876682093e+00 1.5667745523721364e+00 7.9052592870772784e+00 0 0 0
487 1 6.2161585581840546e+00 4.6812027037056785e+00 9.1327571541989343e+00 0 0 0
488 2 5.2369468775246029e+00 4.6141663174716507e+00 9.1655726769918040e+00 0 0 0
489 2 6.5105754782560474e+00 3.9163782770677589e+00 9.5546621022448832e+00 0 0 0
490 1 3.3844621068436140e+00 4.6665070917888940e+00 9.4036138397606557e+00 0 0 0
491 2 3.1713455486985254e+00 3.8805781315672569e+00 9.9069473665811838e+00 0 0 0
492 2 2.6914971652501496e+00 5.3213094556563023e+00 9.7239370568069390e+00 0 0 0
493 1 2.0942478273176230e+00 2.8097003354593681e+00 1.1002660542052743e+01 0 0 0
494 2 1.9820294679694195e+00 3.5085985743932673e+00 1.1721429363023613e+01 0 0 0
98 2 4.9136687517279432e-01 4.8449963944144248e+00 2.8754109731806450e+00 0 0 0
1613 2 7.9820442683060620e+00 1.1682649889445567e+01 1.7994723994751304e+01 0 0 0
499 1 4.4899855126726393e+00 3.2281888608824447e+00 6.4857403357507080e+00 0 0 0
500 2 3.6441680915451111e+00 2.8156483706572715e+00 6.8142526955490244e+00 0 0 0
501 2 4.6709100026971209e+00 2.7966579641151812e+00 5.6300902230876213e+00 0 0 0
502 1 1.6583602827564998e+00 4.4853949591926217e+00 6.9469195449295515e+00 0 0 0
503 2 2.3260506179437304e+00 4.5446540818250716e+00 7.5646561485001076e+00 0 0 0
504 2 1.7566839659108422e+00 5.3683010147568107e+00 6.4350673968380185e+00 0 0 0
505 1 5.0769652931161930e+00 5.9787866276324904e+00 6.6696077815039443e+00 0 0 0
506 2 4.7320338908226987e+00 5.0665342175752803e+00 6.6116518131683391e+00 0 0 0
507 2 4.8148893007425917e+00 6.3139013321098556e+00 5.7718033972242884e+00 0 0 0
5 2 3.3300091129033862e+00 1.0272383016573254e+00 1.9178728080636789e+00 0 0 0
509 2 1.8387418806630955e+00 1.0305893851777985e+00 1.0861392981691463e+01 0 0 0
511 1 1.0770637678487430e+01 1.6187571544334203e+00 9.9499214605814466e+00 0 0 0
512 2 1.0510023533969997e+01 8.8985757373882968e-01 1.0591779357978565e+01 0 0 0
513 2 1.0119279385488692e+01 1.7972423141645619e+00 9.2119167675060734e+00 0 0 0
514 1 9.1866054223610742e+00 1.5034730907485938e+00 7.6025705101858616e+00 0 0 0
515 2 8.1908030216169863e+00 1.5340068658975816e+00 7.5496864090438240e+00 0 0 0
1096 1 5.4546863323341865e-01 7.5352163112998420e+00 1.3512827336278509e+01 0 0 0
1058 2 4.0061976826352536e-01 3.8434866571146373e+00 1.5791843086342672e+01 1 0 0
520 1 9.4143257083433820e+00 4.4298650481166852e+00 9.4801941955793811e+00 0 0 0
521 2 1.0411899693695858e+01 4.3738455879582965e+00 9.4746084320718431e+00 0 0 0
522 2 9.1249181091373242e+00 4.1830350576459727e+00 8.5552559755503577e+00 0 0 0
523 1 7.6127659068515774e+00 2.8206036107724088e+00 1.0712206680310286e+01 0 0 0
524 2 7.6650428523248921e+00 1.8110632167038967e+00 1.0638699210366614e+01 0 0 0
525 2 8.3864512816455274e+00 3.1511404151137925e+00 1.0220041963651104e+01 0 0 0
526 1 6.3719759127318518e+00 1.6228452178302166e+00 7.5506766700386949e+00 0 0 0
527 2 5.7828046773899011e+00 2.3720997256353447e+00 7.2586103515292670e+00 0 0 0
997 1 1.2256963409446305e+01 4.5030842759171179e+00 1.4761212000485845e+01 0 0 0
529 1 1.1061296204381764e+01 3.3673624541817513e+00 6.3839212165368524e+00 0 0 0
530 2 1.0258474243838684e+01 3.1052197439044633e+00 6.8017323852247058e+00 0 0 0
508 1 1.5230811929622829e+00 1.3468431299844286e-01 1.0748641748252503e+01 0 0 0
532 1 7.9866002869771240e+00 4.6486336483227362e+00 7.0354683595497685e+00 0 0 0
533 2 7.9828146516034959e+00 5.4611074266262136e+00 6.4776144223351206e+00 0 0 0
534 2 7.2496502066520616e+00 4.7687772064957192e+00 7.6165095226520503e+00 0 0 0
535 1 1.0768018576844064e+01 6.0672588398740093e+00 6.4154810467324435e+00 0 0 0
536 2 1.0037502839957554e+01 6.6119942278495936e+00 6.8203180673935710e+00 0 0 0
537 2 1.0783081902131524e+01 6.5402289882736886e+00 5.4969412428207720e+00 0 0 0
1607 2 6.2879046025306815e+00 7.3499740981034067e+00 1.9976184485278367e+01 0 0 0
1825 1 4.7859555274942744e+00 1.2777686221272702e-01 1.8139025194114872e+01 0 1 0
1472 2 1.1782380339762875e+01 1.3756760273556685e+00 2.0835437037103425e+01 0 0 0
1158 2 1.2317250316150508e+01 8.1880542555205764e+00 1.2763106101379822e+01 0 0 0
1612 1 7.8981698694759856e+00 1.0893682146248018e+01 1.8619322167476390e+01 0 0 0
601 1 5.0782404343051510e+00 7.2999040534102413e+00 9.9971606657732472e+00 0 0 0
602 2 5.7816420251709548e+00 7.3080868149967904e+00 9.3346406080406439e+00 0 0 0
603 2 5.2240865829122560e+00 8.1212969452938903e+00 1.0478957722167779e+01 0 0 0
604 1 3.2067114467452860e+00 7.6782535066303721e+00 7.9176101694853385e+00 0 0 0
605 2 3.5381953821508652e+00 8.0125049070124987e+00 8.8116940012783420e+00 0 0 0
606 2 3.8688189734822678e+00 7.0306167555421801e+00 7.5954622046207811e+00 0 0 0
607 1 6.5731609257426475e+00 1.0667895473563670e+01 9.2208521541112756e+00 0 0 0
608 2 6.9454324804018457e+00 1.0880724656825821e+01 8.3242708895065949e+00 0 0 0
609 2 7.0871741769948828e+00 9.9176842740978923e+00 9.5148293964562711e+00 0 0 0
610 1 3.9574071725023776e+00 1.0954021122599547e+01 9.3649599293984380e+00 0 0 0
611 2 3.6743482806924850e+00 1.0908679762179927e+01 8.4236301639955613e+00 0 0 0
612 2 4.8296740937316418e+00 1.0522320626188137e+01 9.3510310203319928e+00 0 0 0
613 1 2.3076044686828299e+00 9.0165106521103926e+00 1.0528656882932792e+01 0 0 0
779 2 8.7083706508498366e+00 1.2213040655342303e+01 1.0486637486907435e+01 0 0 0
615 2 2.9668326616980947e+00 9.6681920604884652e+00 1.0254270302124700e+01 0 0 0
1230 2 2.4632832694841498e+00 1.1998694409614247e+01 1.5665682055572756e+01 0 0 0
618 2 1.3417978389423886e+00 7.7421463327984412e+00 8.0797946898828581e+00 0 0 0
619 1 4.9870668932680351e+00 9.2612757523398468e+00 6.5000313706487365e+00 0 0 0
620 2 5.1554293507278111e+00 8.7771955442073821e+00 5.6417666738967993e+00 0 0 0
621 2 4.2383844306643450e+00 8.7937256528439143e+00 6.9482720261147835e+00 0 0 0
622 1 2.1020448197115318e+00 1.0599004215057358e+01 7.0364394236732881e+00 0 0 0
623 2 1.3792435157381300e+00 1.0785964780263436e+01 7.7406508672284176e+00 0 0 0
624 2 2.0257916435724761e+00 1.1280842221508463e+01 6.3616139566099097e+00 0 0 0
416 2 1.0877679640274808e+01 4.2365677459280821e-01 8.9353494287063448e-02 0 0 1
626 2 5.1153266399181812e+00 1.1021515785544826e+01 6.5150974006521469e+00 0 0 0
628 1 1.6400714502902796e+00 6.1614124172811513e+00 1.0599047271615365e+01 0 0 0
629 2 1.6503299365142805e+00 5.6377568717429698e+00 1.1457648893578600e+01 0 0 0
630 2 2.0511148935487906e+00 7.0009144765287923e+00 1.0727174391045645e+01 0 0 0
631 1 1.1093522984619325e+01 7.6583942704399846e+00 1.0052167977281680e+01 0 0 0
632 2 1.0997409558363788e+01 6.9476675912178978e+00 1.0619852845015872e+01 0 0 0
633 2 1.1595097869038298e+01 7.4473366846929396e+00 9.2451125582561549e+00 0 0 0
634 1 9.6306810245901051e+00 8.1791354273227803e+00 7.7328844180115039e+00 0 0 0
635 2 9.8986120873915695e+00 8.2158657670145612e+00 8.6392909096269932e+00 0 0 0
636 2 8.6581013464767835e+00 8.2932065915747799e+00 7.6986516211086933e+00 0 0 0
654 2 8.3008132814480664e+00 1.1645311371817279e+01 6.4143513666008900e+00 0 0 0
639 2 1.1388896932587100e+01 1.0780144444216875e+01 9.3409279380317436e+00 0 0 0
640 1 9.7355895651021509e+00 1.0955091582348832e+01 9.6038645097002497e+00 0 0 0
641 2 9.3976488020553930e+00 1.1067191554261345e+01 8.7284035437881275e+00 0 0 0
642 2 9.1944630850513800e+00 1.0172621116716183e+01 9.9429628846380691e+00 0 0 0
643 1 8.3958868171710712e+00 9.1123496601341447e+00 1.0648247777671399e+01 0 0 0
644 2 8.2425100852236550e+00 8.1207056070976300e+00 1.0655996042341362e+01 0 0 0
645 2 8.1914113595761400e+00 9.4132951697703895e+00 1.1570824679987828e+01 0 0 0
646 1 6.7426457563167830e+00 8.0087440092353965e+00 7.9888228023631296e+00 0 0 0
647 2 6.7307994928501618e+00 7.2256582881646070e+00 7.4376401006123647e+00 0 0 0
648 2 6.0988823472456293e+00 8.5594115755695608e+00 7.5701226590625339e+00 0 0 0
649 1 1.1131698816968528e+01 9.6480610383229060e+00 6.2993976086171024e+00 0 0 0
650 2 1.1076973508943020e+01 1.0627342546162346e+01 6.3855768663240795e+00 0 0 0
651 2 1.0466135332558315e+01 9.2321670054419407e+00 6.8779267407787206e+00 0 0 0
652 1 8.4320195531427462e+00 1.0889490626611963e+01 7.0162070227231013e+00 0 0 0
653 2 8.2495185345668176e+00 1.0189547908976014e+01 6.3546505652099272e+00 0 0 0
556 1 1.2378130712325444e+01 1.3332952004651550e+00 7.7066209527691534e+00 0 0 0
1089 2 5.3421630712620836e+00 1.0627855328866559e+01 1.5039485962890556e+01 0 0 0
658 1 7.9871475473032758e+00 6.3359497585600906e+00 1.0776435991723064e+01 0 0 0
659 2 7.3139536638380926e+00 5.9534012596253811e+00 1.0150436171803198e+01 0 0 0
660 2 8.7771929383321741e+00 5.9924069914836764e+00 1.0465381797258164e+01 0 0 0
1610 2 1.0743874566433501e+01 9.1299302593478568e+00 1.6747758678577796e+01 0 0 0
1038 2 1.1937615999382473e+01 1.3391284957815739e+00 1.4362051441667427e+01 0 0 0
58 1 7.5847980400918242e+00 1.1250737043542458e-01 4.9523898525716401e+00 0 0 0
625 1 5.0866280857986155e+00 1.2024823224078458e+01 6.5620745211954601e+00 0 0 0
1614 2 8.5971511223492953e+00 1.0866693650502478e+01 1.9303821158725391e+01 0 0 0
1611 2 1.1576870752462021e+01 8.7896843850992603e+00 1.8020394465277640e+01 0 0 0
386 2 5.4747668272704466e+00 1.9256957784830325e-01 1.1324275657860263e+00 0 0 0
1616 2 1.0981523558834116e+01 1.1151343899395467e+01 1.7859953239239942e+01 0 0 0
1133 2 7.7438457790507078e+00 1.1414081613016794e+01 1.2345037928806381e+01 0 0 0
269 2 2.7516763585625745e+00 1.2022177239641961e+01 4.5304845992869485e+00 0 0 0
961 1 4.8615019401715429e+00 1.4713083300859544e+00 1.5675566911051023e+01 0 0 0
962 2 4.7676097139702645e+00 2.3332745744798311e+00 1.6213312301407704e+01 0 0 0
1576 1 4.1940906678132439e-01 7.8295212972475863e+00 1.9530359638968896e+01 0 0 0
964 1 2.9359182763269991e+00 1.3720363099908999e+00 1.3517014730504153e+01 0 0 0
965 2 3.3611394387046860e+00 1.4198891862985532e+00 1.4405637488562649e+01 0 0 0
966 2 3.3784524777018365e+00 2.1498153422690764e+00 1.3100728465978685e+01 0 0 0
967 1 6.2216288657605014e+00 4.7078074563895127e+00 1.4817344691262857e+01 0 0 0
968 2 6.5799685101667365e+00 5.3130498809602233e+00 1.5518207430185376e+01 0 0 0
969 2 6.8119512674840648e+00 4.7572720750579993e+00 1.4034893308590387e+01 0 0 0
970 1 3.5661189370956885e+00 4.6940437563635555e+00 1.4907920004515317e+01 0 0 0
971 2 4.5302082433481754e+00 4.8756992398725911e+00 1.4814290770202607e+01 0 0 0
972 2 3.0793198724699300e+00 5.4166271725852777e+00 1.5380321309033240e+01 0 0 0
973 1 1.8350893710080538e+00 3.0152740419698723e+00 1.6434458746718548e+01 0 0 0
974 2 2.4559712327470824e+00 3.4258463461264856e+00 1.5799410511384714e+01 0 0 0
975 2 1.8031952839327621e+00 3.5483837630692885e+00 1.7295666987929415e+01 0 0 0
1106 2 4.7560979189873871e+00 1.2189152180675423e+01 1.1335789686501069e+01 0 0 0
977 2 1.0241938750115596e+00 1.1126656667465955e+00 1.3351945068931984e+01 0 0 0
979 1 4.8566418769103628e+00 3.2913946274255479e+00 1.2333791076323783e+01 0 0 0
980 2 4.6867463503910844e+00 2.9786709032484047e+00 1.1437050167295498e+01 0 0 0
981 2 5.5995252364488142e+00 2.6782905418544565e+00 1.2614056577036909e+01 0 0 0
982 1 1.8999868983450561e+00 4.7592231447100994e+00 1.2908010749367348e+01 0 0 0
983 2 2.7432228949073743e+00 4.9235238096091614e+00 1.3408359415094727e+01 0 0 0
984 2 1.2444939656848584e+00 4.6780231493303628e+00 1.3608135522017133e+01 0 0 0
985 1 5.0092803739541170e+00 5.9774660938048614e+00 1.2268287257033270e+01 0 0 0
986 2 4.9396189466728124e+00 6.2251859695029266e+00 1.1339686624958848e+01 0 0 0
987 2 5.1385430128994880e+00 5.0210314959180629e+00 1.2286896712689135e+01 0 0 0
896 2 1.0988113593196042e+01 1.8994054092031709e-01 5.1499640932462798e+00 0 0 0
989 2 1.9598808205390026e+00 1.2759330821558983e+00 1.6264697822765640e+01 0 0 0
991 1 1.0740190957387380e+01 1.7903374729539474e+00 1.5797548857763251e+01 0 0 0
992 2 1.0895646804998234e+01 9.3691342990424065e-01 1.6260540872334985e+01 0 0 0
993 2 1.0059498907477746e+01 1.5477525010109960e+00 1.5153897001614636e+01 0 0 0
994 1 9.0007783947531070e+00 1.6175053365629675e+00 1.3706175286081089e+01 0 0 0
995 2 9.5630370517458747e+00 1.0537101808610976e+00 1.3094214221234974e+01 0 0 0
996 2 9.3819343675068065e+00 2.4692934705268739e+00 1.3441118536566384e+01 0 0 0
1602 2 9.4216176182431042e+00 1.1316977431918904e+01 2.1086540984077111e+01 0 0 0
998 2 1.1280271816547145e+01 4.4807668008078760e+00 1.4905315415062793e+01 0 0 0
1000 1 9.6002414025747207e+00 4.4637327374960032e+00 1.5021241087644007e+01 0 0 0
1001 2 9.0540278934062322e+00 3.7843301551779103e+00 1.5477153124568041e+01 0 0 0
1002 2 9.2873457544877205e+00 4.4802302553436419e+00 1.4069464486239061e+01 0 0 0
1003 1 7.7027743414769336e+00 2.8573161021623590e+00 1.6692350422050914e+01 0 0 0
1004 2 6.9387267991302899e+00 3.2497216731352672e+00 1.6223041819194542e+01 0 0 0
1005 2 7.7566670792785182e+00 3.4266857720700252e+00 1.7486034022208479e+01 0 0 0
1006 1 6.4367002728054672e+00 1.3707265009875420e+00 1.3287866824817822e+01 0 0 0
1007 2 6.1621686518307470e+00 1.3526889024450843e+00 1.4231013231487829e+01 0 0 0
1008 2 7.4483974603946788e+00 1.4127250324840743e+00 1.3347354991363025e+01 0 0 0
1009 1 1.0790883894806637e+01 3.3757166454953667e+00 1.2306852437028990e+01 0 0 0
1010 2 1.1444321011228652e+01 2.8293342356579836e+00 1.2773971397494376e+01 0 0 0
1011 2 1.0577863296951444e+01 2.8285361669507800e+00 1.1569550273704689e+01 0 0 0
1012 1 8.0316701349486195e+00 4.4511809543556691e+00 1.2770296790790503e+01 0 0 0
1013 2 7.9086725744586150e+00 3.7653864227019551e+00 1.2085631222566587e+01 0 0 0
1014 2 8.0460165281845395e+00 5.2739907050962476e+00 1.2175450372099212e+01 0 0 0
1015 1 1.0744478009012594e+01 6.0058809111988145e+00 1.2110091300129456e+01 0 0 0
1016 2 1.0815999273974580e+01 5.0890497423890606e+00 1.2042632757230058e+01 0 0 0
1017 2 1.1402330849985450e+01 6.3623186651085213e+00 1.2715951772171277e+01 0 0 0
35 2 9.6638534687495543e+00 1.7720972173470129e+00 2.9718675273111264e+00 0 0 0
1019 2 7.8446879896454140e+00 9.9216318918070390e-01 1.6873817326282449e+01 0 0 0
1109 2 1.1287100273077861e+00 5.9361073123531929e+00 1.5926189860598603e+01 0 0 0
219 2 3.8642006425749070e-01 1.1449342582984285e+01 4.0973286787219578e+00 0 0 0
1081 1 4.7438065384998991e+00 7.9448343984042449e+00 1.5926240635192693e+01 0 0 0
1082 2 5.6198414846803333e+00 7.8580726330035020e+00 1.5379398705046617e+01 0 0 0
1083 2 4.8535782969744083e+00 7.1361135243949549e+00 1.6514569562232353e+01 0 0 0
1084 1 3.2678634096087462e+00 7.6518988591807160e+00 1.3580668473925913e+01 0 0 0
1085 2 3.6675909602889898e+00 7.7701534780671810e+00 1.4477081192368747e+01 0 0 0
1086 2 3.6747448284500521e+00 6.8307150874792484e+00 1.3184870434181583e+01 0 0 0
1087 1 6.3199318889614569e+00 1.0786270135965088e+01 1.5130630409286205e+01 0 0 0
1088 2 6.5800714606669715e+00 1.0030650623746340e+01 1.5632792919985180e+01 0 0 0
699 2 7.8694520917712951e-01 1.1453978874152861e+01 9.7163879706825007e+00 0 0 0
1090 1 3.5856333480091895e+00 1.0626796405742919e+01 1.4846501363862615e+01 0 0 0
1091 2 3.4796073779334189e+00 9.8943350684449882e+00 1.5471491177813933e+01 0 0 0
1092 2 3.0525037048899750e+00 1.0462956612935207e+01 1.4009112495489626e+01 0 0 0
1093 1 1.8203844731037178e+00 8.9089891228554876e+00 1.6302938638968378e+01 0 0 0
1094 2 1.5430646874005551e+00 7.9619064800414741e+00 1.6533998060603800e+01 0 0 0
1095 2 1.0790175729569804e+00 9.3272839443335993e+00 1.5790043961962208e+01 0 0 0
517 1 1.2116609100399238e+01 4.8710401603249043e+00 9.2219703939862523e+00 0 0 0
1097 2 1.5378367494722274e+00 7.6303642416324431e+00 1.3559114585587814e+01 0 0 0
1099 1 5.1626014408101524e+00 9.1560551156312275e+00 1.2004885271655509e+01 0 0 0
1100 2 4.4159380086164459e+00 8.7495303653807852e+00 1.2451880784946566e+01 0 0 0
1101 2 5.1288081048249943e+00 1.0159396409324646e+01 1.2232231057181538e+01 0 0 0
1102 1 1.9777954805883300e+00 1.0640995677878994e+01 1.2725783086399812e+01 0 0 0
1103 2 2.1262288670390470e+00 9.8559778429280165e+00 1.2086714212648593e+01 0 0 0
1104 2 1.2581800259496843e+00 1.0357540182993354e+01 1.3349788805619985e+01 0 0 0
16 1 3.4352383910989226e-01 1.5190223680921788e+00 2.4325113053401184e+00 0 0 0
1108 1 1.8544779388137018e+00 6.3069110220100626e+00 1.6506074753974943e+01 0 0 0
1347 2 5.5537376010627284e+00 1.7546790180369959e-01 1.2618396712917129e+01 0 0 0
1110 2 1.8055524542943959e+00 5.8425798285878958e+00 1.7346182339705138e+01 0 0 0
1111 1 1.1081029081172616e+01 7.6028874266448616e+00 1.5350223244475162e+01 0 0 0
1112 2 1.1822292004422811e+01 7.4385838217017923e+00 1.4712809427048816e+01 0 0 0
1113 2 1.0321825267216591e+01 7.5909666979990931e+00 1.4774532436648034e+01 0 0 0
1114 1 9.1878057564642450e+00 7.8919412589296831e+00 1.3452968657983407e+01 0 0 0
1115 2 9.3901190968968429e+00 7.1325740560396333e+00 1.2818138628591697e+01 0 0 0
1116 2 8.2133754525190028e+00 7.8337267886445812e+00 1.3604705710466657e+01 0 0 0
33 2 1.1711256949589623e+01 1.7444736885774488e+00 3.5291128380940324e+00 0 0 0
1120 1 9.5903262838773209e+00 1.0647881497055089e+01 1.5176492003551312e+01 0 0 0
1121 2 9.1259519816722303e+00 1.0580519983791364e+01 1.4335188212111225e+01 0 0 0
1122 2 1.0583740403277648e+01 1.0809222547300779e+01 1.5107063909142598e+01 0 0 0
1123 1 8.2316018866578684e+00 8.9686405334636472e+00 1.6805700580207940e+01 0 0 0
1124 2 8.8273037091999811e+00 9.4954369753730816e+00 1.6232725490222215e+01 0 0 0
1125 2 8.1430012952514339e+00 9.5984156527751825e+00 1.7508638722325365e+01 0 0 0
1126 1 6.5398857528497514e+00 7.6934857713132541e+00 1.3814029269510863e+01 0 0 0
1127 2 6.2170312028334207e+00 6.9956329945908751e+00 1.3275489322085980e+01 0 0 0
1128 2 6.1382184809905054e+00 8.4084345447936197e+00 1.3245626008433074e+01 0 0 0
1129 1 1.1079260940744735e+01 9.4369352089243002e+00 1.2246675674975494e+01 0 0 0
1130 2 1.0424168976707728e+01 8.9128542875973249e+00 1.2735979551775346e+01 0 0 0
1131 2 1.1085166048771425e+01 9.1396229326457679e+00 1.1312721228208737e+01 0 0 0
1132 1 7.9814209191888219e+00 1.0759453932181062e+01 1.3009273448888896e+01 0 0 0
1135 1 1.1055803112321655e+01 1.2144245049023370e+01 1.2292931600021699e+01 0 0 0
1134 2 7.2042485287423910e+00 1.0763657144086890e+01 1.3671872096200335e+01 0 0 0
516 2 9.3925067965762192e+00 7.1533061570813194e-01 7.1349896473773988e+00 0 0 0
1137 2 1.0742630385260936e+01 1.1250517780683376e+01 1.2036899910337551e+01 0 0 0
1138 1 7.9170815748469288e+00 6.2342658647416886e+00 1.6418024252963967e+01 0 0 0
1139 2 8.2224500530787736e+00 7.1659817781118518e+00 1.6552673561690057e+01 0 0 0
1140 2 8.6864831720128262e+00 5.8126849176721400e+00 1.5953695075084811e+01 0 0 0
557 2 1.2168221211176837e+01 1.3239755755932532e+00 8.6350540717190807e+00 0 0 0
417 2 1.0109501252525309e+01 2.7693658897653095e-01 1.3706815905304057e+00 0 0 0
1376 2 1.1392002043194008e+01 1.5056633443027184e-02 1.2582893621231797e+01 0 0 0
749 2 2.0732013600215877e+00 1.1835637435182241e+01 1.1674765792270207e+01 0 0 0
678 2 1.2229969069344151e+01 7.3088522808453034e+00 7.3738360142842563e+00 0 0 0
152 2 1.1660492076862482e+01 7.7792205646801662e+00 3.4993681581995539e+00 0 0 0
1606 1 6.6525039239867780e+00 7.5095383411619903e+00 1.9102645597093321e+01 0 0 0
616 1 4.1586155951888332e-01 7.5766593962057263e+00 7.7879003472745678e+00 0 0 0
988 1 1.9219022162510528e+00 2.3570141729758953e-01 1.6153495992950845e+01 0 0 0
1441 1 4.7563097664749634e+00 1.7995882578949340e+00 2.1517295682709907e+01 0 0 0
1615 1 1.0983566318999680e+01 1.2124346552433041e+01 1.7893907872462457e+01 0 0 0
1443 2 4.7974821924669691e+00 2.4198712149393544e+00 2.2302725840099143e+01 0 0 0