LAMMPS data file via write_data, version 3 Mar 2020, timestep = 12650000

2016 atoms
2 atom types

0.0000000000000000e+00 1.7932347972310829e+01 xlo xhi
1.2039593752707134e-01 4.4875764039399087e+01 ylo yhi
0.0000000000000000e+00 1.9071219452241817e+01 zlo zhi
4.2817358423807031e-02 -6.6666060924694293e+00 -2.4219822962677995e-02 xy xz yz

Masses

1 16
2 2

Atoms # atomic

1632 2 8.5251071226529973e+00 1.0275045224961485e+01 1.0820352459068044e+01 -1 0 1
223 1 3.2083605171724576e+00 9.1659874567679491e+00 7.4886287211823719e+00 -3 0 -1
35 2 4.0242605426509011e+00 1.1153138288921145e+00 2.7399964090227824e+00 -1 0 0
493 1 1.1723434173992770e+01 8.8500987481540836e+00 1.5970529570955181e+01 -3 0 -3
993 2 -3.8142307560560651e-01 2.1106415105088869e+00 8.5313783016680453e+00 2 0 1
72 2 2.3463824937755930e+00 9.0996374003420133e+00 1.8460752072735396e+01 0 0 0
929 2 1.4128485630670715e+01 3.3007608768305712e+00 4.5341768237094549e+00 0 0 0
77 2 -1.2992856132401236e+00 8.7363881217805819e+00 9.2525886780782507e+00 -3 0 -3
687 2 -5.9827682086742993e+00 5.0565572152130667e+00 1.8843656108705584e+01 -3 0 -1
1094 2 -3.1731147491642071e+00 7.1918687140790283e+00 1.1723237085065213e+01 1 0 0
502 1 9.2187280860773626e+00 1.3267740659910161e+00 9.2299676080821342e+00 0 0 -1
740 2 1.5191591855405475e+01 6.9226049951602180e+00 2.1594042682032499e-01 0 0 2
1629 2 9.9084650764323001e+00 6.1213049202444907e+00 2.9877057789700734e+00 0 0 1
844 1 1.1271350267604664e+01 1.7390785238519957e+00 1.1785416038008634e+01 1 0 1
163 1 -3.2803188760851043e-01 3.2138112723794388e+00 1.4597480030463558e+01 2 0 -1
596 2 5.0132146324015796e+00 7.1196027595733415e+00 5.4120533790157532e+00 3 0 -1
1528 1 1.1987263071535130e+01 1.0527569073636663e+01 5.0829229732616996e+00 0 0 0
840 2 8.8026524141619191e+00 1.9999836838578635e+00 1.8149124700713330e+01 -1 0 -3
881 2 -1.4397877822153049e+00 6.1092722168594138e+00 8.6289803086707018e+00 -3 0 2
319 1 -3.3844514847798268e+00 1.9278453292147513e+00 1.4387500974610720e+01 -3 0 -3
765 2 1.3325060579968930e+00 4.7514309582051872e+00 1.7351308930026811e+01 -4 0 -3
165 2 6.0647795966637474e-01 3.5091395087128205e+00 1.4523963389771108e+01 2 0 -1
448 1 8.4413153538329162e+00 8.0881053121153883e+00 1.2775597555877953e+01 -1 0 1
729 2 -3.4207000706477304e+00 8.2227962495866844e+00 1.9045559743469948e+01 2 0 1
777 2 1.1787891474310291e+01 3.9259220587127794e+00 5.0519718768566033e+00 -2 0 2
685 1 -5.3309651670357656e+00 5.7341384681086307e+00 1.9067694885131033e+01 -3 0 0
560 2 1.1735481063345999e+01 1.0677337352167897e+00 6.9678289174776520e+00 -2 0 1
561 2 1.3280677288093006e+01 1.3848560939120322e+00 7.1348794713030479e+00 -2 0 1
11 2 5.6788926003183704e+00 1.0026051586757660e+01 1.1253780711366783e+01 -1 0 1
1672 1 -7.0453613182835628e-01 1.0434164539545387e+01 1.9062490514800345e+01 1 0 1
176 2 9.5127093795091504e+00 1.0307570503841585e+00 1.1930769242959311e+01 -5 0 1
696 2 1.2187106619615044e+01 1.0826392101098357e+01 1.0174292664753459e+01 -2 0 -1
670 1 1.1206106890283625e+00 4.7665797427113175e+00 8.1596696265123683e+00 -3 0 -1
1518 2 3.2167863600659778e+00 4.5241803342723941e+00 1.8141694828324120e+01 0 0 0
746 2 9.6574161966182572e+00 4.7558350668168332e+00 4.6682503854383652e+00 -3 0 0
534 2 1.3112213880501187e+01 6.1354871268411477e+00 1.0097863664984850e+01 -2 0 1
901 1 1.5301208650760665e+00 6.9565522839066514e+00 9.8086406916583861e+00 -1 0 0
704 2 -2.9631287005603646e-01 7.1162084350435215e+00 7.1979860336636285e+00 -1 0 0
701 2 3.2127173971538081e-01 4.2431110219194066e+00 1.1488109802014950e+01 -3 0 -3
673 1 1.3488925525595766e+01 6.7729065534491930e+00 2.2242153158198330e-01 -1 0 -3
161 2 6.5064903061988577e+00 3.3220098279006525e+00 3.4130963845598061e-01 0 0 -4
403 1 6.4694167108835572e+00 1.5068931626665092e+00 9.4976228456725540e+00 3 0 1
81 2 1.0243503832478545e+01 8.6858603419383584e+00 1.2085618187524524e+01 -5 0 -1
902 2 8.8529256215468521e-01 7.6835796921457638e+00 9.9375145692496289e+00 -1 0 0
916 1 7.7144715378522699e+00 2.3163658314485394e-01 3.0037121282389081e+00 1 0 3
334 1 4.5216380333079460e+00 7.0059662245652516e+00 3.2822892764117956e-01 -2 0 -1
603 2 8.8248004906546100e+00 5.3211064419020415e+00 1.7042843258001952e+01 -3 0 -2
151 1 7.6681628323757742e+00 5.1966000987305705e+00 4.8346869461613995e+00 3 0 0
604 1 1.4395310666425283e+01 1.2952788490696063e+00 2.1700617782126055e+00 0 0 2
880 1 -1.6588445154244507e+00 5.6351322441715075e+00 9.4604540969437672e+00 -3 0 2
214 1 6.1497642759805258e+00 3.0526792899145829e+00 1.1662250317065523e+01 0 0 -2
174 2 4.9447375336598354e+00 7.2138565429334154e+00 1.2528964602042691e+01 0 0 -1
667 1 1.0353689411580103e-01 9.4398767775208690e+00 1.6818080868509508e+01 -3 0 -3
382 1 8.6831295705132092e+00 3.0158903995877964e+00 1.4413770598589858e+01 -2 0 0
86 2 -3.8181451866782368e+00 2.2456590649480526e+00 1.7995741802043792e+01 2 0 -3
775 1 1.2565225039158019e+01 3.3439956219260951e+00 5.0591618287936271e+00 -2 0 2
613 1 3.6792075515281679e+00 5.0747404781443155e+00 7.2226267736026175e+00 -2 0 0
1040 2 2.9657121941821298e+00 1.0268834781483671e+01 6.2228845826041015e+00 -1 0 0
689 2 3.0701352822385659e+00 3.3372113790376150e+00 1.0482836885045488e+00 -2 0 0
268 1 1.1922805587544318e+00 7.3706576038149638e+00 6.4302783461482678e+00 1 0 -1
173 2 3.5016033166001419e+00 7.8550602897790540e+00 1.2614522839144177e+01 0 0 -1
1128 2 1.0559918491354576e+01 3.4546547816354076e+00 1.4182046504794497e+01 -1 0 0
420 2 -2.2883480126143967e+00 8.0880028918344422e+00 6.6397560466056653e+00 -1 0 1
356 2 -1.6302643098197125e+00 4.0328453783550913e+00 1.8052965050224859e+01 -4 0 -3
978 2 8.8073460214700550e+00 2.2391555725402288e+00 1.5849597972617595e+01 -3 0 -1
500 2 2.4698334857866469e+00 2.9395782523864749e+00 1.3266039708236276e+01 1 0 0
14 2 1.2948932437343148e+01 4.0870871795194148e+00 1.0491852881220854e+01 -4 0 -2
562 1 1.0051597454596092e+01 6.7503770553934235e+00 9.8447451026739401e+00 -4 0 -1
694 1 1.1651308207376417e+01 1.0264444929123092e+01 9.5620299660397841e+00 -2 0 -1
872 2 9.8501016481325507e+00 5.6382905876177491e-01 5.7461769758372157e+00 -2 0 -1
930 2 1.4876422361008467e+01 2.3375661434699904e+00 3.5013158512596609e+00 0 0 0
255 2 6.4333226359182056e+00 6.1782527183918825e+00 1.0901760055060704e+01 -3 0 -2
501 2 3.0155748984283957e+00 4.1764359620131115e+00 1.4212559033814369e+01 1 0 0
618 2 1.6661426967203717e+01 5.6032739655563546e+00 1.2232057559767122e+00 -2 0 -1
424 1 1.0578928037896494e+01 5.6361358737794189e+00 7.0272450898733241e-02 -2 0 2
760 1 2.2675681890706052e+00 1.8488340188265111e+00 1.9063446186038529e+01 -3 0 1
384 2 8.5352693116875322e+00 2.3866438771897363e+00 1.3646233564462282e+01 -2 0 0
70 1 9.4462459560883545e+00 8.5321344147455864e+00 2.5523081121208876e-02 0 0 1
622 1 -2.7306875028583826e+00 3.1425173072995358e+00 1.2127539390265738e+01 -2 0 -2
624 2 -3.3318377456734178e+00 3.8830888495984803e+00 1.1885979674491045e+01 -2 0 -2
797 2 -1.8255318125860209e+00 2.2332501013087419e-01 1.1945547608294664e+01 -2 0 1
179 2 -6.0920713087782330e-01 1.0036212728679983e+01 7.8598642793862599e+00 -2 0 -1
302 2 2.3423847056143039e+00 1.0381990679225675e+01 1.3204920414491591e+01 0 0 -1
341 2 6.2375050528031721e+00 2.1622268887299247e+00 5.7628217396335630e+00 -3 0 0
1088 2 3.3337301075764709e+00 7.1481935907495711e+00 9.3437722419644391e+00 0 0 -1
600 2 2.3974131888331724e+00 2.1792719902231488e+00 9.8431141445800066e+00 -3 0 1
49 1 8.2938860083506771e+00 3.1294989182731325e+00 6.9349186019984357e+00 -1 0 0
172 1 4.2031416255413028e+00 7.4301934832161818e+00 1.3148462211181196e+01 0 0 -1
506 2 5.6445769167994122e+00 9.5367923972178819e+00 2.9477977422369213e+00 -4 0 -2
583 1 5.6674690141465707e+00 8.3764874334834172e+00 6.6609501584679167e+00 -4 0 -4
1127 2 1.2050241561028127e+01 4.0300248281084965e+00 1.4039728879098599e+01 -1 0 0
1095 2 -2.1085562510821312e+00 6.5912067067358846e+00 1.0826338776690596e+01 1 0 0
883 1 1.7796379878982350e+01 9.1446976088786300e+00 2.4645855353100748e-01 -1 0 -1
848 2 -2.6891665179616573e+00 5.2067471694751184e+00 1.4150520310298059e+01 2 0 1
512 2 1.1628037050176088e+01 1.8045460277387191e+00 1.5084782625119038e+01 1 0 0
598 1 2.9074602492288726e+00 2.7803456114180047e+00 9.2950798134198873e+00 -3 0 1
505 1 5.2664776069384729e+00 9.1144481682654384e+00 2.1430914685400815e+00 -4 0 -2
343 1 -1.8396611155250069e+00 1.8411963042795404e-01 1.5814958869394825e+01 -1 0 1
837 2 1.0167008605364629e+01 1.0910860434752918e+01 1.4196369940852421e+01 -1 0 1
1529 2 1.2830816423857987e+01 1.0978685466546052e+01 5.0030150367325437e+00 0 0 0
1046 2 1.0954524089315754e+01 3.6365014042656401e+00 2.0574953822614743e+00 0 0 0
1673 2 -4.0063782053610186e-01 1.0080291465832810e+01 1.8155783767386581e+01 1 0 1
631 1 6.8625797181816592e+00 1.6904754144808601e-01 1.5683130366192382e+01 -3 0 -2
626 2 5.0267793494396598e+00 2.1186195297106689e+00 1.8044989522831354e+01 0 0 -1
446 2 4.3059993354834232e+00 6.1080645471803496e+00 1.4017208897799380e+01 0 0 0
434 2 3.6450482747145676e+00 4.0157418090388610e+00 1.0214108026792834e+01 -2 0 0
921 2 -3.1297104333713115e+00 1.9921107670509792e+00 1.0795312876499185e+01 1 0 -2
76 1 -3.8952091893638219e-01 9.0874568228335946e+00 9.3211807797360677e+00 -3 0 -3
279 2 9.9844960366577666e+00 5.4439426094223329e+00 8.3398843928857769e+00 -5 0 -1
470 2 -2.7380680303845895e-01 3.8552879534391109e+00 2.2981058486368271e+00 -6 0 -2
471 2 1.2474282393369727e+00 3.4230825550002448e+00 2.4564729932555571e+00 -5 0 -2
644 2 -2.6320827779979137e+00 4.5180642602192274e+00 8.7373450870397846e+00 -3 0 -3
385 1 8.7103725469298769e+00 9.2607218946770029e+00 4.7511775450551674e+00 0 0 -2
2 2 1.2433798738404670e+01 1.0306335266566212e+01 9.8183658400584539e-01 -1 0 -1
671 2 2.0516778298396217e+00 4.8305187798790783e+00 7.8211974033185188e+00 -3 0 -1
609 2 -4.7848868525923294e-02 2.4251091427878313e+00 1.6082515184045103e+01 -3 0 -1
721 1 7.3685239212430336e+00 7.4024208595717589e+00 3.3091570883284467e+00 -5 0 -2
339 2 -4.6057047069677193e+00 5.4570946767857658e+00 1.5174230756140402e+01 -1 0 -2
553 1 2.1795954310838237e+00 9.1262639090108362e+00 1.2041450125762745e+01 -5 0 -1
931 1 1.2755186088141430e+00 6.4561080845659546e+00 1.4176661011850381e+01 -3 0 -1
389 2 7.1356328833728666e-02 2.3046387500462320e+00 4.0823601905666163e+00 0 0 0
974 2 -4.0630703298683191e+00 3.2452797441031618e+00 1.5613614264597189e+01 -3 0 -2
767 2 -6.5640011712245228e-01 9.8313676387673041e+00 5.6711118242093015e+00 -3 0 0
922 1 5.1724141589188672e+00 3.1101692898183497e+00 1.6611185874315215e+01 -3 0 -3
623 2 -1.8481955926339619e+00 3.4561774454548915e+00 1.1844238572951436e+01 -2 0 -2
278 2 1.1122511493822719e+01 5.0288161846823245e+00 7.5038603810482103e+00 -5 0 -1
301 1 2.4178778360724715e+00 1.0865567131593194e+01 1.4032899278168061e+01 0 0 -1
843 2 2.2843240949625327e+00 7.9627567814931064e+00 1.4996272234966977e+01 -5 0 -5
810 2 4.5884315398822189e+00 1.3886026434883052e+00 6.8863386002210536e+00 -3 0 -1
415 1 5.2585015821676446e+00 1.0613331447406791e+01 1.6723851363381407e+01 0 0 -2
425 2 1.0978712030116354e+01 4.9323637632380777e+00 6.1642298842717380e-01 -2 0 2
511 1 1.1494175801100175e+01 1.1218681242120268e+00 1.5775211430672828e+01 1 0 0
53 2 4.3257843030751841e+00 6.4572707785900434e+00 1.7559937892500166e+01 2 0 -1
15 2 1.2377510069612136e+01 4.9365090977739801e+00 1.1650164035774569e+01 -4 0 -2
700 1 -5.0713849866563310e-01 3.9626104074552400e+00 1.1094802445803442e+01 -3 0 -3
418 1 1.4856045139973112e+01 8.4288455880824564e+00 6.0873396530940012e+00 -2 0 0
435 2 4.9844161294648339e+00 4.1840732645938949e+00 1.1086549424758037e+01 -2 0 0
739 1 1.6155389096896553e+01 7.0096702538825841e+00 8.8930834186107088e-02 0 0 2
703 1 -1.2305570966712065e+00 6.8483007272960537e+00 7.1401214223324887e+00 -1 0 0
204 2 9.8435593431831521e+00 4.8205310898438576e+00 1.1902989059708181e+01 -4 0 -1
934 1 1.2089461593543360e+01 9.7940529882933292e-01 3.4216703466425051e+00 -2 0 0
539 2 5.7424758120080659e+00 2.0138306304956464e+00 1.5006132533842129e+00 -4 0 -3
672 2 1.1247047088903588e+00 3.9952873551409818e+00 8.7625522756328387e+00 -3 0 -1
1047 2 1.1940320066267242e+01 2.9406150209493784e+00 1.1066879312792439e+00 0 0 0
559 1 1.2373313579834852e+01 1.7155343801427776e+00 7.2770233491077301e+00 -2 0 1
351 2 1.1716147382941049e+00 1.3632110842563911e+00 1.2627891874503455e-01 3 0 4
719 2 -2.0589331158803459e-02 7.2715889345969877e+00 2.7476109754979157e+00 -2 0 -2
1045 1 1.1738501197588139e+01 3.8162245041370340e+00 1.5149895688860688e+00 0 0 0
394 1 8.1194343201706616e+00 1.0464569318471828e+01 7.2605272648343560e+00 -3 0 -4
386 2 9.2460291660745764e+00 9.7240852596347143e+00 4.0345482139150928e+00 0 0 -2
396 2 7.2013717965289539e+00 1.0739102138794987e+01 7.5934212911021470e+00 -3 0 -4
340 1 6.3381826449366034e+00 1.3494736635421773e+00 6.2971909657680811e+00 -3 0 0
50 2 8.9327585005066812e+00 3.7828188705085628e+00 7.2526567367419217e+00 -1 0 0
954 2 1.4686743740546138e+01 9.8450625704912706e+00 3.1565923782503349e+00 -1 0 2
713 2 2.7369494334137112e+00 1.0766733181869399e+00 1.2224199070370799e+01 0 0 3
785 2 6.5398472513426107e+00 8.0776350099853840e+00 1.5316739814894547e+01 -4 0 -3
487 1 -2.4259867312964012e-01 8.5295713009491010e+00 1.2972693376120457e+01 -6 0 -1
768 2 -1.9446630658286645e-01 9.9083302961954907e+00 4.2074677584681082e+00 -3 0 0
54 2 4.3643026356732637e+00 6.1956720454398431e+00 1.6014273079823536e+01 2 0 -1
766 1 -3.3183856860613714e-01 9.2785525805561857e+00 4.9554064821512736e+00 -3 0 0
336 2 -2.2081039946586056e+00 6.2612581608495619e+00 1.8778196348754420e+01 -2 0 -3
747 2 1.0664664410560693e+01 5.7792380263277279e+00 5.3387198975328403e+00 -3 0 0
34 1 3.2197719406651508e+00 8.3869777528349154e-01 3.2818799089446355e+00 -1 0 0
202 1 1.0643762761130978e+01 5.3322291018772825e+00 1.2136940452899255e+01 -4 0 -1
217 1 -3.9371252008303497e+00 1.0342374853584703e+01 1.6573933992203131e+01 -1 0 -2
79 1 1.1176437809954379e+01 9.0030681727682698e+00 1.2004776082922822e+01 -5 0 -1
585 2 6.4662354870142824e+00 7.9121584348447183e+00 6.9597094295290720e+00 -4 0 -4
718 1 9.3234879257870629e-01 7.0351024610648549e+00 2.4812006205397297e+00 -2 0 -2
857 2 1.3960209784760678e+00 5.7254993717347338e+00 3.7100461154508424e+00 -1 0 -3
146 2 1.0013658469284564e+01 7.9385834019683612e+00 5.8475578899282672e+00 0 0 1
514 1 8.9118416232073017e+00 9.1844589438938602e+00 1.6823145715223280e+01 -2 0 -1
419 2 1.4032817722135094e+01 8.5334352442386727e+00 6.6521233726702382e+00 -2 0 1
695 2 1.1400887086853027e+01 9.4813786764654520e+00 1.0121610224664174e+01 -2 0 -1
961 1 5.3509388197737495e+00 1.8066142681374051e+00 1.4035327464803395e+01 -3 0 -1
42 2 9.0514010736197612e+00 2.5906939661502784e+00 1.5821101805619471e+00 -2 0 3
726 2 1.1283095727033528e+01 3.7995311850003737e+00 9.0322287899086486e+00 1 0 1
515 2 8.7647276314861298e+00 9.7012178433777532e+00 1.7642502921265429e+01 -2 0 -1
769 1 1.2829962684459796e+01 5.5872619973638997e+00 7.3261931187814762e+00 1 0 -3
858 2 5.4585057764369638e-01 4.9767009049999453e+00 4.8157663515374027e+00 -1 0 -3
926 2 -5.2250323102860996e-01 1.9441448529626457e+00 1.3324567263261512e+01 2 0 2
1582 1 5.4646628066937097e+00 9.0184324152463695e+00 1.8855256565880278e+01 -1 0 1
41 2 9.2146276735296730e+00 2.6860857304266448e+00 3.1762892746294082e+00 -2 0 3
449 2 8.6658341935600429e+00 7.4787936387043565e+00 1.3526771594638362e+01 -1 0 1
812 2 1.6286477732974546e+01 4.2055562942276312e+00 4.6908525230644944e+00 -2 0 -1
915 2 1.2395817160861888e+01 7.1706746075187133e-01 1.2421167595966040e+01 0 0 2
605 2 1.5133219593194003e+01 7.0765014014694094e-01 2.2549422864513162e+00 0 0 2
21 2 8.5813328250205583e+00 6.7566666233730057e+00 7.1783934890457060e+00 -3 0 -3
36 2 2.5195772799836806e+00 5.0330364136085248e-01 2.7229750321078150e+00 -1 0 0
578 2 2.8216824066905204e+00 1.9841426360277845e+00 1.5278415496497637e+01 0 0 0
741 2 9.6110863748987576e+00 6.7593120361286001e+00 1.8199491493786372e+01 0 0 1
337 1 -4.5500103464842647e+00 5.2438772241537288e+00 1.4216881019890245e+01 -1 0 -2
969 2 6.4400779979132858e+00 4.8543542935142918e+00 2.0199076257335871e+00 -1 0 1
545 2 6.5906131313584586e+00 4.0835843821192022e+00 1.7207294981534186e+01 2 0 1
895 1 5.5047635569570286e+00 9.4544170303607054e+00 1.4372460620940100e+01 -2 0 -1
992 2 -1.4011941799390024e+00 1.6294828688226590e+00 9.5460794741309023e+00 2 0 1
40 1 9.1919622747363849e+00 3.2098489584224037e+00 2.3329030538741606e+00 -2 0 3
786 2 6.2779656759799360e+00 7.0386350130146340e+00 1.6343177359581812e+01 -4 0 -3
575 2 4.4657234800984487e+00 8.7702038992488500e+00 1.8946330910947800e+01 -1 0 1
724 1 1.1825038479779714e+01 3.1864089877128694e+00 9.5844856797571740e+00 1 0 1
784 1 6.9931366070837955e+00 7.3268523989872278e+00 1.5740961158419481e+01 -4 0 -3
967 1 7.2180298956271889e+00 4.7609740129387994e+00 1.4328757355055000e+00 -1 0 1
1600 1 1.4674302274148570e+01 1.0754579751497232e+01 4.5627799397772151e+00 0 0 0
681 2 -1.7278111452900180e+00 3.0315441477423728e+00 7.1755488464029638e+00 -2 0 -2
649 1 9.1332654408528704e+00 1.7699941870263363e+00 4.7673884466611831e+00 -4 0 0
889 1 1.4686908284534749e+01 1.1058198498700724e+00 6.2762509719375341e+00 -1 0 0
51 2 7.4582026687505270e+00 3.5276384294491590e+00 7.0595790519912587e+00 -1 0 0
943 1 4.0017302927000076e-01 1.0383648850430093e+01 2.6244810858876093e+00 -1 0 2
1010 2 1.3891018839577884e+01 8.1321319328123778e+00 9.7759243202662187e+00 -2 0 -1
526 1 5.8637853673610110e+00 3.7796796028681947e+00 7.9098079595637634e+00 -2 0 0
433 1 4.1625446376680495e+00 4.6292335230794839e+00 1.0756328448496191e+01 -2 0 0
438 2 9.8737001415625123e+00 6.3204514286240991e+00 1.5317806261831647e+01 -3 0 0
1674 2 5.8172202773355766e+00 9.7091535281370316e+00 6.0541524951782610e-01 1 0 2
846 2 1.1312222951103715e+01 2.2679890613455145e+00 1.0951454119157852e+01 1 0 1
371 2 8.8801011914551147e+00 8.0169134880015420e+00 9.5978472714200507e+00 -6 0 -2
835 1 1.1089815918395258e+01 1.0600294956237930e+01 1.4074990199439736e+01 -1 0 1
928 1 1.5022070873388513e+01 2.8681943010351088e+00 4.3151642487363491e+00 0 0 0
577 1 2.4872836556891214e+00 1.0967302233252716e+00 1.5603193595771735e+01 0 0 0
152 2 7.0111594295982300e+00 4.4419396116081860e+00 4.6963354264539836e+00 3 0 0
388 1 3.9119225339718344e-02 1.5433458371514679e+00 4.7041665881072365e+00 0 0 0
1550 2 6.7755198829630547e-01 6.6238892907926941e+00 1.8080949533866836e+01 -1 0 0
254 2 7.1710504067763878e+00 7.2298515324805681e+00 1.1901475928434364e+01 -3 0 -2
1089 2 4.4324502310082430e+00 6.0925336529440921e+00 9.8287633896000557e+00 0 0 0
1076 2 -1.9885269364585585e+00 1.0779253436904570e+01 1.1905085427195569e+01 0 0 -1
728 2 1.6893674390380717e+00 8.7679784833243790e+00 1.2475043560766920e-01 2 0 2
208 1 1.3516012265824603e+01 6.3729974052784515e+00 4.8462371545850704e+00 3 0 -1
725 2 1.2101147651910612e+01 2.4790766829857724e+00 8.9798780549594603e+00 1 0 1
145 1 1.0462172406242292e+01 7.2987836976928380e+00 6.4460315435624365e+00 0 0 1
240 2 5.4649598632125596e+00 1.0505575654398061e+01 8.6268101426452120e+00 0 0 0
629 2 1.4400752790202519e+01 1.0673751771992322e+01 8.7408874853063576e+00 -2 0 2
669 2 -2.5977655787130782e-01 9.6741348080909475e+00 1.5984118957583615e+01 -3 0 -3
1011 2 -3.2785192963920053e+00 9.3139229204289897e+00 1.0590746834580338e+01 -1 0 -1
564 2 1.1024499217860360e+01 6.9870178040392128e+00 9.8748786965327593e+00 -4 0 -1
445 1 4.3532028919436785e+00 5.2775457029279771e+00 1.4586405396422984e+01 0 0 0
462 2 2.6073287234961491e+00 4.0411229667552835e+00 4.6748585579162283e+00 -4 0 -2
651 2 8.6473777080785421e+00 2.3972396129833844e+00 5.4664589671060293e+00 -5 0 0
198 2 3.5272475955154148e+00 1.0999639599998972e+01 1.7186858854837084e+01 -3 0 -2
884 2 1.0819323687230355e+01 9.8807037697775488e+00 1.8819548341835947e+01 -1 0 -2
606 2 1.4699664943178432e+01 1.8095807221505962e+00 1.3622101277468837e+00 0 0 2
177 2 8.0320121679086540e+00 6.2139100272742886e-01 1.2219431924130310e+01 -5 0 1
178 1 -7.8398282991565971e-01 1.0804208846606405e+01 7.2015563723617220e+00 -2 0 -1
655 1 6.9346002183039879e+00 5.5785302380590505e+00 9.5027891891019909e+00 -2 0 0
847 1 -1.7733745868944282e+00 5.5469286031405467e+00 1.3918630536462999e+01 2 0 1
870 2 4.8843149454607122e+00 3.3452998537027994e+00 4.6986522662012300e+00 2 0 1
548 2 1.7349241635747230e+00 6.1704141216640238e+00 1.1249551868362092e+01 -2 0 -3
395 2 8.7229657414629926e+00 1.1060613354329895e+01 7.6793567916828183e+00 -3 0 -4
476 2 8.3391087059491174e+00 1.0287534272507180e+01 1.5211510619821306e+01 -1 0 2
679 1 -7.7485658142255431e-01 2.8782717292096973e+00 6.9347047671946065e+00 -2 0 -2
932 2 6.4738545882377085e-01 7.1208952097453722e+00 1.3930290684885353e+01 -3 0 -1
907 1 2.8120848930601507e+00 8.3949424091585385e+00 3.7237947415170116e+00 0 0 1
924 2 4.2975056228947759e+00 3.5591702681237396e+00 1.6693445774504006e+01 -3 0 -3
321 2 -3.1384380128390226e+00 2.4919357837484886e+00 1.3598520167171174e+01 -3 0 -3
941 2 1.4604803805347490e+01 1.0057222199396129e+01 8.9929319731857371e-01 -3 0 0
426 2 1.0172812340622677e+01 6.2842576602799287e+00 6.8600866430497065e-01 -2 0 2
923 2 5.1754258082272768e+00 2.6675745109917171e+00 1.5729137501202290e+01 -3 0 -3
584 2 5.8298066462247151e+00 9.0772942649959987e+00 5.9656562532976523e+00 -4 0 -4
503 2 8.2441393866384942e+00 1.1366726625272177e+00 9.1848672307410659e+00 0 0 0
952 1 1.4366023128131850e+01 9.2629599542232217e+00 2.4010594925450870e+00 -1 0 2
680 2 -2.8601951163220685e-01 3.7042071893663211e+00 7.0722254312592021e+00 -2 0 -2
976 1 8.9576091833550660e+00 1.5866356959942445e+00 1.6616760082545536e+01 -3 0 -1
1628 2 8.8597872498482442e+00 7.1485313035730798e+00 2.4327979785836051e+00 0 0 1
1665 2 7.3928101422769483e+00 6.1876508369628747e+00 8.9378696415247010e+00 -2 1 0
475 1 8.3841066589168847e+00 1.0809071418862857e+01 1.4397202345071451e+01 -1 0 2
405 2 6.1944243510744998e+00 1.8053396535885171e+00 1.0405085287638942e+01 3 0 1
352 1 1.2944791412456244e+01 7.3216790305593591e+00 1.2828728935464408e+01 -2 0 0
1009 1 1.4522627705783538e+01 8.8473484221397598e+00 9.7081793289008296e+00 -2 0 -1
897 2 4.8760480539121227e+00 8.7719853933588041e+00 1.4085736228702034e+01 -2 0 -1
705 2 -1.2754413664115831e+00 6.1751031076443468e+00 6.4524609973599425e+00 -1 0 0
184 1 4.9686979484115064e+00 5.3583407595823083e+00 2.5658297878764480e+00 -4 0 -6
460 1 3.1639417635239111e+00 3.2213971183116810e+00 4.7268586991889885e+00 -4 0 -2
203 2 1.0537965028803752e+01 5.9139257943796162e+00 1.2941438034740241e+01 -4 0 -1
776 2 1.2548453393055107e+01 2.9977501794909718e+00 5.9867582216704891e+00 -2 0 2
186 2 4.9742760051593695e+00 5.7915277711553657e+00 3.4497728450197180e+00 -4 0 -5
809 2 3.5173033038741863e+00 2.3496944968005788e+00 6.1992532049917122e+00 -3 0 -1
595 1 4.4336234595039290e+00 6.4923552020577873e+00 4.9240758540200984e+00 3 0 -1
528 2 5.0990437205004753e+00 4.1300967202936443e+00 7.4401583211591298e+00 -2 0 -1
1516 1 2.8559927996404051e+00 3.9225452228387478e+00 1.7403295052396309e+01 0 0 0
370 1 8.3419566357741441e+00 8.8678528766507938e+00 9.6214195259437165e+00 -6 0 -2
450 2 8.1337089034132397e+00 8.9084983405670943e+00 1.3193150582673873e+01 -1 0 1
461 2 2.8461196291963295e+00 2.5785373236935589e+00 4.0674337310127866e+00 -4 0 -2
599 2 3.0747764560257504e+00 2.4546436175744608e+00 8.3705569066297283e+00 -3 0 1
650 2 8.4115795963812907e+00 1.2926264300335708e+00 4.2694506099645881e+00 -4 0 0
20 2 7.6099967720431909e+00 5.9610935246190380e+00 6.4178422957382324e+00 -3 0 -3
533 2 1.2706746193629716e+01 6.8882176930826784e+00 8.6767716879857932e+00 -2 0 1
270 2 8.4208439659143508e-01 8.0689071759220994e+00 5.8219258088040444e+00 1 0 0
839 2 1.6174526792313763e+01 2.7319997751152725e+00 3.2730478325345058e-01 -1 0 -2
617 2 1.5562572595409883e+01 4.8150185154263001e+00 1.9602875400983109e+00 -2 0 -1
527 2 5.8269032619730350e+00 2.8056065988604586e+00 8.2122742984058696e+00 -2 0 0
607 1 8.8009512561839642e-02 1.7324220692865480e+00 1.6778551601076153e+01 -3 0 -1
300 2 7.0928762332115793e+00 6.0033296489918131e+00 1.4641898597982951e+01 -2 0 -2
868 1 5.8576975597330989e+00 3.2462801649169997e+00 4.5851428768366240e+00 2 0 1
1911 2 1.1791522718255671e+00 6.2451939269549088e+00 9.2275186182369424e+00 -1 0 0
164 2 -7.6499862058151358e-01 4.0465700772707844e+00 1.4250964319984021e+01 2 0 0
218 2 -4.0055092275914976e+00 9.6403637968297051e+00 1.7329890656588162e+01 -1 0 -2
712 1 2.0969589620473084e+00 1.7889377072224804e+00 1.1985371348829601e+01 0 0 3
160 1 -8.1239570299217601e-01 2.7173539441941497e+00 1.9018269722750741e+01 0 0 -5
925 1 -6.0291783944364363e-01 1.1628070490040860e+00 1.2769742458799723e+01 2 0 2
690 2 3.6286364881081279e+00 4.4839963369098612e+00 2.0181189246439120e+00 -2 0 0
962 2 4.6772227249357430e+00 1.2242560811506500e+00 1.3649982186442546e+01 -3 0 -1
919 1 -2.9405766654478667e+00 1.6667141205648288e+00 9.9116898001955107e+00 1 0 -2
615 2 3.9881352788637598e+00 5.8275963354463514e+00 7.8496542591013716e+00 -2 0 0
841 1 2.5668793120576119e+00 8.6177172264603534e+00 1.5669430599813319e+01 -5 0 -5
939 2 -5.3961941596759377e-01 7.6515739409908079e+00 1.6071448505984222e+01 2 0 0
277 1 1.0314877351937662e+01 4.6306688391930617e+00 7.8798101406303624e+00 -5 0 -1
1172 2 2.9453252717489997e+00 9.8410305628676653e+00 9.3608434861373571e+00 0 0 0
538 1 5.6119934325657690e+00 1.7220099539800162e+00 2.3996981888807594e+00 -4 0 -3
614 2 3.5980016882868129e+00 5.5144526045650677e+00 6.3654741456259520e+00 -2 0 0
805 1 5.7019973907263113e+00 9.1197718033931956e+00 9.9177603476362375e+00 -4 0 1
1059 2 4.5182558433391335e+00 1.0309537778882262e+01 4.8015704784188573e+00 0 0 1
544 1 7.2827616895272591e+00 4.4963366588009439e+00 1.7711426028658671e+01 2 0 1
488 2 -8.7788853212786977e-01 8.1315209565406139e+00 1.2332757388832652e+01 -6 0 -1
1087 1 4.2768860781493157e+00 6.8767178545916376e+00 9.1853232042207100e+00 0 0 0
78 2 -3.8728915719797863e-01 9.8912632524234176e+00 9.8811719804923506e+00 -3 0 -3
1664 2 6.5342233161288998e+00 4.8679897838517281e+00 8.9444670440273502e+00 -2 1 0
210 2 1.2794456549235241e+01 6.8317784449171972e+00 4.3829837790170343e+00 3 0 -1
945 2 1.8634586912565076e-01 9.8843977046299383e+00 1.8131935282342710e+00 -1 0 2
836 2 1.1298667656280941e+01 1.0069243740323508e+01 1.4839725736797742e+01 -1 0 1
390 2 -1.5516220361513788e-01 1.9024734955927260e+00 5.6204997429377483e+00 0 0 0
1630 1 8.5009829867637006e+00 1.1197681832698237e+01 1.1100668416207986e+01 -1 0 1
10 1 5.9603154494729571e+00 1.0737154747105393e+01 1.1850595131152170e+01 -1 0 1
625 1 4.9904542332800297e+00 1.6888775191415588e+00 1.8955829170781936e+01 0 0 -1
13 1 1.3217714375814801e+01 4.7498965578517023e+00 1.1231154260120126e+01 -4 0 -2
404 2 5.8977110398518455e+00 7.3197903017586641e-01 9.3428558678713554e+00 3 0 1
147 2 1.1272576668263662e+01 7.8602427465333502e+00 6.7755668985571313e+00 0 0 1
551 2 1.2426258045727591e+01 9.5477237206764780e+00 6.4863605754869624e+00 -1 0 0
808 1 3.6198852896934555e+00 1.7052961049084889e+00 6.9848744125001012e+00 -3 0 -1
19 1 7.6243553951437093e+00 6.6417678545188474e+00 7.1426731494648958e+00 -3 0 -3
80 2 1.1117928185391364e+01 9.7388021080593372e+00 1.2691662676959188e+01 -5 0 -2
350 2 1.9334853274811192e-01 1.7568684157966135e+00 1.2121824153429022e+00 3 0 4
162 2 -2.7119892797135048e-01 2.2319427825312159e+00 1.8305935656796137e+01 0 0 -5
630 2 -2.6160232713586478e+00 1.1166674581221457e+01 7.7058956129482059e+00 -1 0 2
299 2 7.2418004271795677e+00 5.5018742580520943e+00 1.3074866939869722e+01 -2 0 -2
1171 1 2.5835457715506682e+00 1.0624853643047025e+01 9.8174055221641385e+00 0 0 -1
896 2 5.3337349479056106e+00 9.9036432945288819e+00 1.5264696108791053e+01 -1 0 -1
813 2 1.6346423723393926e+01 5.7575600531310798e+00 4.4134419545972765e+00 -2 0 -1
912 2 -6.0264193592284876e+00 3.5409848981176735e+00 1.7330420074720230e+01 -1 0 0
944 2 1.3402587192677997e+00 1.0665854851672483e+01 2.4098315621674748e+00 -1 0 2
645 2 1.4731280387882453e+01 3.0495426025751389e+00 8.5845083582154764e+00 -4 0 -3
771 2 1.3007186390235486e+01 5.7073766701822048e+00 6.3972906376267291e+00 1 0 -3
745 1 1.0610664412798670e+01 5.1177563458169111e+00 4.6244549177110654e+00 -3 0 0
720 2 8.3644069521156139e-01 6.8922578250901525e+00 1.5366310998216481e+00 -2 0 -2
866 2 1.3084220061607807e+01 4.7381233443188426e+00 2.1405766906997989e+00 -4 0 -1
601 1 9.6262521822769518e+00 5.7433844946853014e+00 1.6870543742454046e+01 -3 0 -2
225 2 4.0606104648123598e+00 8.7530578488051329e+00 7.1834363204181750e+00 -3 0 -1
770 2 1.3529846732312308e+01 4.9781628279607926e+00 7.5958471019821090e+00 1 0 -3
675 2 1.3608412099379768e+01 6.3339980522150423e+00 1.0931402501787628e+00 -1 0 -3
908 2 2.4340964540085839e+00 9.1170144851293937e+00 4.3172880941538203e+00 1 0 1
383 2 8.2885313603880171e+00 3.9062537415075953e+00 1.4222550902950971e+01 -2 0 0
298 1 7.3580311363551933e+00 5.3074971287647106e+00 1.4019083596552660e+01 -2 0 -2
499 1 2.4357189167329345e+00 3.3665470462649694e+00 1.4171161941764133e+01 1 0 1
910 1 1.1107465586785427e+01 3.6282220194529295e+00 1.7956917935189036e+01 -2 0 0
546 2 7.7854578495578926e+00 3.7574859639552058e+00 1.8206545718481824e+01 2 0 1
1549 1 6.8769946659332160e-01 6.9846709300694378e+00 1.8988467835955728e+01 -1 0 0
549 2 2.8576752388299704e+00 5.1735804095300626e+00 1.1637174808666211e+01 -2 0 -3
1584 2 6.0213996975246165e+00 8.2158674877658306e+00 1.8871690646963799e+01 -1 0 1
573 2 -9.0744152287741864e-01 5.0670783156698551e-01 3.7395650264042866e+00 3 0 4
632 2 7.5956471508966024e+00 5.4001041893510981e-01 1.6218795394337459e+01 -3 0 -2
911 2 1.1245028837699865e+01 2.8240804382950699e+00 1.8500353984195240e+01 -2 0 0
191 2 9.4653404294658667e+00 9.6908972894262693e+00 1.6490230743343333e+00 -2 0 -3
811 1 -1.4008081321852335e+00 5.0479370979286635e+00 5.0058893780146860e+00 -1 0 -1