LAMMPS data file via write_data, version 3 Mar 2020, timestep = 1000000

1008 atoms
2 atom types

2.5154975264259249e-01 1.8148005247350852e+01 xlo xhi
1.1790824942984557e-02 2.2558598175050246e+01 ylo yhi
2.1219524532109446e-01 1.9293520754678489e+01 zlo zhi
3.5559222707604053e-02 -6.7422263089533931e+00 -1.1409767224522579e-02 xy xz yz

Masses

1 16
2 2

Atoms # atomic

1 1 6.4322046258917158e+00 9.8386105778900546e-01 4.9151133768712070e+00 0 0 0
99 2 1.3201813592856794e+01 4.8295775469604401e+00 9.2192842250804432e+00 0 0 0
3 2 6.6273616526694994e+00 1.6031432979951976e+00 4.1485371578859960e+00 0 0 0
4 1 3.6097196960453108e+00 1.2199465051123051e+00 4.9994765935676728e+00 0 0 0
5 2 4.4579861105422856e+00 7.4605688137658022e-01 4.9254712892888541e+00 0 0 0
6 2 3.7289160538232484e+00 1.6746716551000806e+00 5.8752172336878594e+00 0 0 0
7 1 -8.0684174061522773e-01 6.4277073169781982e+00 5.1569047815555562e+00 0 0 0
8 2 -9.0926388603575159e-01 5.8932776256008657e+00 5.9931938375573424e+00 0 0 0
9 2 -1.3845183711279596e+00 7.2077086947749454e+00 5.1573247398921875e+00 0 0 0
10 1 1.9040274355601363e+00 6.6554923787304858e+00 4.7911092265681772e+00 0 0 0
11 2 9.6578147288832317e-01 6.6333266746185728e+00 5.0293075449543769e+00 0 0 0
12 2 2.2681285551093637e+00 7.5484687066878973e+00 4.8189139506179881e+00 0 0 0
604 1 1.1237417457885870e+01 4.8283121536404527e+00 9.4490682200858220e+00 0 0 0
14 2 4.8828735810636257e+00 5.5434328555006962e+00 8.2544264578688757e+00 0 0 0
248 2 7.6963741653494724e+00 8.6233428260456328e+00 5.2929951743595738e-01 0 0 0
607 1 6.6791464524017918e+00 2.8883111687275336e+00 9.6315927256187504e+00 0 0 0
18 2 5.5704435254129132e+00 5.2962849638362144e+00 8.2385067363040987e-01 0 0 0
302 2 1.4534467537465613e+01 1.0719341618217292e+01 6.9934446778372177e+00 0 0 0
135 2 1.5811805288754604e+01 2.5704018310177439e+00 6.3409913088780385e+00 0 0 0
21 2 1.0628141894163192e+00 2.3851451822319309e+00 1.3302973744082802e+00 0 0 0
84 2 3.2367113570102637e+00 6.7276269440317105e+00 5.4697209922117163e-01 0 0 0
224 2 1.1586175228914142e-01 1.1095921759126790e+01 3.7581855574233942e+00 0 0 0
221 2 4.4634923854871156e+00 1.0633530965219373e+01 2.8412888965531211e+00 0 0 0
25 1 4.7578616301544567e+00 6.6507025477335775e+00 6.8363555877929061e+00 0 0 0
26 2 5.2702571899596178e+00 7.4052636418713274e+00 7.1544835443384063e+00 0 0 0
27 2 3.8081855445152244e+00 6.7128795596401094e+00 7.1120137253445082e+00 0 0 0
28 1 5.8128305721537421e+00 6.2652559732294355e+00 2.2632959942583240e+00 0 0 0
29 2 5.9139364954459825e+00 6.0271022418775502e+00 3.1921666376023570e+00 0 0 0
30 2 5.1634761353815914e+00 6.9894839496017758e+00 2.1772333812671940e+00 0 0 0
31 1 1.3691586736245722e+00 1.2328119051231317e+00 2.5832455235292335e+00 0 0 0
32 2 2.2832769827429273e+00 9.2799052369806945e-01 2.3035600986985689e+00 0 0 0
33 2 1.4347042648909356e+00 1.7266414087449899e+00 3.4045776623053996e+00 0 0 0
34 1 3.7071168562106838e-01 1.2275875722835210e+00 7.3804717451939945e+00 0 0 0
35 2 -5.0743606913645056e-01 8.0612323484636339e-01 7.5513017607210529e+00 0 0 0
36 2 3.8105400649782206e-01 1.8982221613567440e+00 8.1335957248551676e+00 0 0 0
37 1 6.5122476149949708e+00 2.4117039485674678e+00 2.6000696238067191e+00 0 0 0
38 2 5.5817403225220303e+00 2.8419465499378904e+00 2.7503240350576847e+00 0 0 0
39 2 7.1784382440773191e+00 3.1307646751405409e+00 2.7058610057314763e+00 0 0 0
40 1 3.7217014992997299e+00 2.4897136699790932e+00 7.3948530219723283e+00 0 0 0
41 2 4.6962194457135684e+00 2.7807320123360006e+00 7.3194662582615750e+00 0 0 0
42 2 3.1302032735743617e+00 3.2438341561335124e+00 7.2290406971509942e+00 0 0 0
43 1 -5.1566033126560118e-01 4.9549561961296993e+00 7.3518107354813749e+00 0 0 0
44 2 -1.2528518143345686e+00 4.2866066802948914e+00 7.2270794671121861e+00 0 0 0
45 2 -6.5350091275649969e-01 5.3600744951944028e+00 8.1942380814491571e+00 0 0 0
46 1 1.9527063450192088e+00 5.0028418246239426e+00 2.6444883279752656e+00 0 0 0
47 2 9.8787121727877691e-01 4.7827092150626926e+00 2.5250076792035845e+00 0 0 0
48 2 1.9166334592177450e+00 5.5950230769843037e+00 3.3843770410576259e+00 0 0 0
49 1 6.1269691164578344e+00 3.0979351274908882e+00 6.4887116996232548e+00 0 0 0
50 2 6.0568973074169170e+00 3.7470991755065413e+00 5.8152655927935379e+00 0 0 0
51 2 6.3695830597113279e+00 2.3021922874502798e+00 5.9755595134670667e+00 0 0 0
52 1 4.0204640917457501e+00 3.2570005282825574e+00 3.3675338730682967e+00 0 0 0
53 2 3.2853590979472793e+00 3.7960109507659481e+00 3.1266075559474737e+00 0 0 0
54 2 3.7402496130777019e+00 2.4555434468626838e+00 3.9351518176927689e+00 0 0 0
55 1 -7.3805299452427264e-01 4.2672942911545793e+00 3.4211173794199867e+00 0 0 0
56 2 -1.0017649518952469e+00 5.0239011398928994e+00 3.9999719728919199e+00 0 0 0
57 2 -2.6742395523082940e-01 3.7145745673398283e+00 4.1178089556994504e+00 0 0 0
58 1 2.2712437219342987e+00 4.5863937306759031e+00 6.4831118369911520e+00 0 0 0
59 2 2.3093020985938901e+00 5.2678914836667108e+00 5.8037131267725357e+00 0 0 0
60 2 1.3838949770332718e+00 4.6827626966893714e+00 6.8489392129297642e+00 0 0 0
61 1 8.6097199921002545e+00 7.1973149699183629e+00 1.4965363777157494e+00 0 0 0
62 2 7.9246135400109408e+00 7.0471163822391016e+00 2.1200681180758494e+00 0 0 0
63 2 8.5622580418412984e+00 6.3175857051193756e+00 9.5332492829565629e-01 0 0 0
64 1 2.2535631083930370e+00 7.3194748921734085e+00 8.3528261888043875e+00 0 0 0
65 2 1.5689833938019295e+00 7.9038661661956127e+00 7.8699481871858090e+00 0 0 0
66 2 2.6556719876627719e+00 7.9207152853136442e+00 9.0210031167453035e+00 0 0 0
146 2 1.7455645357285501e+01 6.3796771287119887e+00 1.1532288769337042e+00 0 0 0
68 2 -2.1484688609369451e+00 1.0332393073329060e+00 8.8554222991085645e+00 0 0 0
103 1 1.0339965540553143e+01 2.9918417123699639e+00 2.4087474133869266e-01 0 0 0
72 2 3.8892032087467765e+00 1.1916102804234165e+00 1.2412947999489323e+00 0 0 0
73 1 5.5410838302574916e+00 5.0706986615745970e+00 4.7457937477234777e+00 0 0 0
74 2 4.8785472327890362e+00 5.6033316029705791e+00 5.3196806187320753e+00 0 0 0
75 2 4.9557372238936894e+00 4.4173485783743791e+00 4.2775564309410603e+00 0 0 0
76 1 6.9587947383379678e-01 2.7116789089804381e+00 4.9623450531706883e+00 0 0 0
77 2 6.2530851749027594e-01 2.2023912299551851e+00 5.8172088710608225e+00 0 0 0
78 2 1.4687344909130615e+00 3.2383979868884558e+00 5.1429996817201591e+00 0 0 0
80 2 6.9262992471185507e+00 1.8302415283303048e+00 7.9718183001184673e-01 0 0 0
69 2 1.5140732057144440e+01 1.5607832893350912e-01 7.7112487422202234e+00 0 0 0
117 2 1.0009693513721556e+01 6.2788692927470824e-01 2.2902806493499002e+00 0 0 0
85 1 1.5387651525911075e+01 1.1077111939060520e+00 5.1699650319546588e+00 0 0 0
87 2 1.5430733619958335e+01 1.4270631127257358e+00 4.2430360863353487e+00 0 0 0
88 1 1.2749102195196581e+01 1.1340433737696931e+00 5.1765632539747841e+00 0 0 0
89 2 1.2633948625091273e+01 1.8726156389136270e+00 4.4524411844907466e+00 0 0 0
90 2 1.3731667867784163e+01 1.0748787339194072e+00 5.3862120864583112e+00 0 0 0
91 1 8.1138964872166515e+00 6.4556474344524011e+00 4.8403312754034147e+00 0 0 0
92 2 7.8650536367928554e+00 5.6568267846624076e+00 4.2913471526131959e+00 0 0 0
93 2 9.0802227938912345e+00 6.5675865655140306e+00 4.7123244084739575e+00 0 0 0
94 1 1.0863245149335066e+01 6.4546952212082935e+00 4.8279330486635486e+00 0 0 0
95 2 1.1518884149181714e+01 7.0948111400106049e+00 5.0207894990043647e+00 0 0 0
96 2 1.0929469557672579e+01 5.7051805696793672e+00 5.5123744991532329e+00 0 0 0
2 2 7.1889864193023385e+00 3.8316983627322210e-01 5.0274724186265498e+00 0 0 0
187 1 1.1247979344749637e+00 1.0256492347551390e+01 3.7731704373265246e-01 0 0 0
163 1 1.6059180988469777e+01 1.3453050788763157e+00 4.7624000165071367e-01 0 0 0
101 2 1.4767123041428627e+01 4.7979898602558055e+00 1.3089374546006605e+00 0 0 0
219 2 6.0136628381263515e+00 1.0443717366725908e+01 7.2935157888535986e+00 0 0 0
486 2 1.1483085920811590e+01 1.1739022525519316e-01 8.7610635852519270e+00 0 0 0
67 1 -2.0103664166574462e+00 2.5510050271778906e-01 8.2940966205634066e+00 0 0 0
145 1 1.7275106411456054e+01 7.2286379635168592e+00 1.6107308549621637e+00 0 0 0
109 1 1.3681118960294764e+01 6.2972335050863553e+00 7.1585651096707341e+00 0 0 0
110 2 1.4094459613924304e+01 5.7741828454800617e+00 7.9613609519867428e+00 0 0 0
111 2 1.2821094804749423e+01 6.6592757006984016e+00 7.5319267583612906e+00 0 0 0
112 1 1.4844567808146742e+01 6.1995773359166666e+00 2.7766888480492509e+00 0 0 0
113 2 1.4068272098228309e+01 6.9070917262172369e+00 2.6577345699240245e+00 0 0 0
114 2 1.5602504127979039e+01 6.8342839609753465e+00 2.5707820039745921e+00 0 0 0
115 1 1.0643845139819453e+01 1.2705197140772715e+00 2.7025517973494875e+00 0 0 0
116 2 1.0442870347687510e+01 2.0526174136466571e+00 2.2198592322529085e+00 0 0 0
305 2 1.2299650193933960e+01 1.1172709840482069e+01 3.1706097031813099e+00 0 0 0
118 1 9.2758864156385776e+00 1.1874114096222756e+00 7.2567645682609898e+00 0 0 0
119 2 9.8426402512117654e+00 1.7679425950887833e+00 7.7737606802957746e+00 0 0 0
120 2 9.4851294742937036e+00 1.4616988243223854e+00 6.2961473943745370e+00 0 0 0
121 1 1.5289660580213175e+01 2.5722156513258758e+00 2.6037947855788488e+00 0 0 0
122 2 1.5971649296941898e+01 3.2156544947648693e+00 2.9049510510379712e+00 0 0 0
123 2 1.5613825948514805e+01 2.3094684075256917e+00 1.7468249056405349e+00 0 0 0
124 1 1.2915004793384625e+01 3.0003932493935039e+00 7.2449380631641818e+00 0 0 0
125 2 1.3910072909711946e+01 3.1089770523599656e+00 7.3186864698578491e+00 0 0 0
126 2 1.2761867025213444e+01 2.3635820709596218e+00 6.5458111690236942e+00 0 0 0
127 1 8.2068822612369328e+00 4.6842262530062868e+00 7.2240276304907889e+00 0 0 0
128 2 7.5566344610484641e+00 3.9880733235162240e+00 7.0894407088617779e+00 0 0 0
129 2 8.0131491180508316e+00 5.2061111728122214e+00 6.4352197398853797e+00 0 0 0
130 1 1.1014197935549527e+01 5.4333441058867287e+00 2.1940584667556724e+00 0 0 0
131 2 1.1503560953415466e+01 4.5724516790429934e+00 2.3824210491667044e+00 0 0 0
132 2 1.1041495672077318e+01 5.9356339307820347e+00 3.0959832934901255e+00 0 0 0
134 2 1.4941869215294808e+01 3.8161661872819579e+00 6.0227591211410498e+00 0 0 0
136 1 1.2671780185884980e+01 3.3237978547228701e+00 3.5603612888307481e+00 0 0 0
137 2 1.3125175149409511e+01 3.9862656724926300e+00 4.1872010612674337e+00 0 0 0
138 2 1.3449775691232833e+01 2.9879323412040120e+00 3.0525682953369540e+00 0 0 0
139 1 8.3014566492375366e+00 4.2023619519657771e+00 3.1671749532860356e+00 0 0 0
140 2 8.8970955720880696e+00 4.3974612374399067e+00 2.4565028798789852e+00 0 0 0
141 2 8.7152739097415779e+00 3.4779223750518535e+00 3.7262300472777627e+00 0 0 0
142 1 1.0847514351992700e+01 4.2752908865038464e+00 6.4493237152233096e+00 0 0 0
143 2 1.1537185635245557e+01 3.9446372211897849e+00 7.0761466094915857e+00 0 0 0
144 2 1.0064959191310349e+01 4.2775073833284640e+00 6.9958138861832051e+00 0 0 0
147 2 1.7098635561747297e+01 7.8575162484957364e+00 8.6573770575488029e-01 0 0 0
148 1 1.1224013820867963e+01 7.1036582911661874e+00 8.1399602051850461e+00 0 0 0
149 2 1.0991876261117504e+01 6.1959637973754651e+00 8.5140484810310451e+00 0 0 0
150 2 1.1432904295269147e+01 7.5940406406100891e+00 8.9308382182572466e+00 0 0 0
217 1 6.6854661227372514e+00 1.0750352671042211e+01 6.6223062041610889e+00 0 0 0
97 1 1.4112302796281254e+01 4.9172882225082599e+00 9.5857325731578928e+00 0 0 0
153 2 6.7466653812611739e+00 1.5133425010561530e+00 8.5788618852009009e+00 0 0 0
528 2 2.9148574115822052e+00 3.0127486312931322e+00 2.9590990032971581e-01 0 0 0
155 2 1.3022024217191102e+01 8.4321059102857565e-01 1.1770322715349870e+00 0 0 0
309 2 7.6634716749693323e+00 1.1257606880083911e+01 3.3185557161784125e+00 0 0 0
157 1 1.4118867213104034e+01 5.0515075341154994e+00 4.9306269271419270e+00 0 0 0
158 2 1.4461234392347762e+01 5.5660136815557966e+00 4.1188763011044927e+00 0 0 0
159 2 1.3953927237398808e+01 5.6581076299103890e+00 5.7114175399672362e+00 0 0 0
160 1 9.5857880171837557e+00 2.5006673329304872e+00 4.8407471547267180e+00 0 0 0
161 2 1.0335007862222545e+01 2.8996197643853265e+00 5.3248980526489440e+00 0 0 0
162 2 1.0122744810809136e+01 1.9858531585356920e+00 4.1584033424380582e+00 0 0 0
83 2 2.1479452159510943e+00 5.7841763323929412e+00 1.0086152003281370e+00 0 0 0
151 1 6.8983852973121191e+00 6.4196989125465109e-01 8.2444816818173106e+00 0 0 0
836 2 1.2696033517136970e+01 9.1311203658244526e+00 8.9808766178170671e+00 0 0 0
169 1 6.5296673791766988e+00 8.4644800600548109e+00 4.8650674073947018e+00 0 0 0
170 2 7.1549505232940138e+00 7.6830781239315549e+00 4.8057287947139056e+00 0 0 0
171 2 6.8910400917126537e+00 9.0987288217729461e+00 5.5012337981402721e+00 0 0 0
172 1 3.7719076667419387e+00 8.7246599438143946e+00 5.2456726035510730e+00 0 0 0
173 2 3.7079694174148212e+00 9.4672378525203413e+00 4.5777859066928803e+00 0 0 0
174 2 4.6862091930966656e+00 8.4407407685178537e+00 5.0979788013893712e+00 0 0 0
15 2 3.7609740469567585e+00 4.8484574856411573e+00 9.1837805899601914e+00 0 0 0
133 1 1.5457768910157831e+01 3.3782837084191559e+00 6.7113162840530833e+00 0 0 0
102 2 1.4163923202879912e+01 3.7128359017253127e+00 3.3309114161041353e-01 0 0 0
192 2 8.1473257269494015e-01 1.0209946875784674e+01 8.7829345765796987e+00 0 0 0
199 1 1.4545717241394287e+00 8.6414293059706822e+00 2.5341538625453879e+00 0 0 0
200 2 1.4268380873713760e+00 9.3519122584025194e+00 1.7951789789110695e+00 0 0 0
201 2 7.9366312556552698e-01 8.0021822752182530e+00 2.1623130322372814e+00 0 0 0
202 1 4.0703209618270275e-01 8.9575682809253312e+00 7.4581393406652765e+00 0 0 0
203 2 -4.9561125640675940e-01 8.5840987618635847e+00 7.3959594982064729e+00 0 0 0
204 2 5.9934666566465244e-01 9.1143350588346728e+00 6.5220622492662583e+00 0 0 0
205 1 6.3558166331662971e+00 1.0203994972246241e+01 2.9003831409362881e+00 0 0 0
206 2 6.4547319588780949e+00 9.5237574447143540e+00 3.6482008534680288e+00 0 0 0
207 2 6.4420978541700897e+00 9.8557508052264495e+00 1.9856721267550019e+00 0 0 0
208 1 4.1650235173054426e+00 9.9705864164478548e+00 7.5904678855462819e+00 0 0 0
521 2 1.7791449714166792e+00 5.6819340863198358e+00 9.1374616623636165e+00 0 0 0
210 2 3.8946036187716322e+00 9.5453475014296441e+00 6.7195047151898288e+00 0 0 0
780 2 1.2952498124204848e+01 9.8361050551021290e+00 8.6657899252381876e-01 0 0 0
167 2 1.1443205909476212e+01 5.9195776817597876e+00 6.5470375084249122e-01 0 0 0
612 2 1.2243399148721776e+01 2.6542983604105790e+00 3.5066881109639053e-01 0 0 0
154 1 1.2960678983401497e+01 1.6673022474015264e-01 1.8650094765915941e+00 0 0 0
86 2 1.6160388567767331e+01 4.2392389336922748e-01 5.2528303416952848e+00 0 0 0
235 1 -2.3331108400946956e+00 8.1562360884087077e+00 8.0320027767637434e+00 0 0 0
236 2 -2.6213749597212739e+00 8.8892815814746857e+00 8.5656820538008951e+00 0 0 0
238 1 4.0420929864800934e+00 8.0174551285028883e+00 1.6874262581941568e+00 0 0 0
239 2 3.1311816055780710e+00 8.1943493901028166e+00 2.0965072426084506e+00 0 0 0
240 2 4.1730719631533901e+00 8.7798025205320140e+00 1.1279573938017529e+00 0 0 0
244 1 7.2270222111296145e-01 9.5593219551802004e+00 4.8690128259021535e+00 0 0 0
245 2 9.7781458472561056e-01 9.2157793834895934e+00 4.0249518601891818e+00 0 0 0
246 2 1.4049195730220914e+00 1.0170853419553509e+01 5.2731180620920384e+00 0 0 0
19 1 1.1754884387440059e+00 2.8026215789494722e+00 4.5424692176041709e-01 0 0 0
330 2 9.3208758676274375e+00 1.0262426362603824e+01 4.4281114376238842e+00 0 0 0
253 1 1.5443591927418959e+01 8.9525583697023983e+00 4.9039869013852613e+00 0 0 0
255 2 1.5484607802946076e+01 9.3474812968033216e+00 4.0166862830893768e+00 0 0 0
256 1 1.2707419686461263e+01 8.6146349200659831e+00 5.1577862381360635e+00 0 0 0
257 2 1.3671515416273284e+01 8.5821472976470403e+00 4.8146733967854987e+00 0 0 0
258 2 1.2436431682096716e+01 9.3485727786642041e+00 4.5734650698482415e+00 0 0 0
13 1 4.7309245291140094e+00 5.0269443699196641e+00 9.1310044410727453e+00 0 0 0
272 2 1.0195188309107607e+01 9.7406086094714492e+00 1.3735223250214124e+00 0 0 0
304 1 1.2996751370817362e+01 1.0818690079040589e+01 3.7514397415131211e+00 0 0 0
276 2 9.4765130922101921e+00 9.7276759463094891e+00 8.9458946690388323e+00 0 0 0
283 1 1.0692081214320316e+01 8.5884307764530519e+00 2.4127297042530103e+00 0 0 0
284 2 1.0510795445671224e+01 9.0086411015632137e+00 3.3183594995620398e+00 0 0 0
285 2 1.0072716913330177e+01 7.8313317709173011e+00 2.3567243541511700e+00 0 0 0
286 1 9.1885223618782632e+00 8.8685969520708170e+00 7.2376745737603683e+00 0 0 0
287 2 9.7364763190896149e+00 8.1486460334486299e+00 7.5906661483785607e+00 0 0 0
288 2 8.2714468964378938e+00 8.5591403281527896e+00 7.3605552254557960e+00 0 0 0
289 1 1.5362173735209247e+01 1.0281406241981109e+01 2.3594698874090518e+00 0 0 0
190 1 7.3511499282576720e-01 1.0435285362810866e+01 9.7396996452740385e+00 0 0 0
291 2 1.5711341280499211e+01 9.7760221689480939e+00 1.6195581572907123e+00 0 0 0
292 1 1.2921850806150402e+01 1.0002030389146029e+01 7.6371016525008324e+00 0 0 0
753 2 3.8005673340390036e+00 9.6576629451832599e+00 9.3062537878656464e+00 0 0 0
294 2 1.2822415178366981e+01 9.4437827767353379e+00 6.8212460681285148e+00 0 0 0
668 2 1.2714458925753952e+01 2.1619199195620040e+00 8.9052489917342204e+00 0 0 0
70 1 3.7199087450543908e+00 4.7873745994783556e-01 1.8327256420068059e+00 0 0 0
306 2 1.3822332322835400e+01 1.0588327213153258e+01 3.2367440418789237e+00 0 0 0
311 2 1.0727412741457652e+01 1.1040675358435180e+01 5.9440457855787487e+00 0 0 0
319 1 6.6474279483103125e+00 8.0431189111223684e+00 8.2752906205228722e+00 0 0 0
320 2 6.2015093149030438e+00 8.7310451034783707e+00 8.7395508910859689e+00 0 0 0
321 2 6.7941215478734751e+00 7.3139001387110225e+00 8.9659314314892349e+00 0 0 0
322 1 1.3114956428221229e+01 8.0888121953927197e+00 1.7484846020626121e+00 0 0 0
323 2 1.2218934352606993e+01 8.2764777677767345e+00 2.1410556491074608e+00 0 0 0
324 2 1.2960077780662644e+01 7.6093032585048714e+00 8.9930601305943325e-01 0 0 0
328 1 1.0147732076711124e+01 9.7437320972944956e+00 4.7693901847005229e+00 0 0 0
329 2 9.8300921596156652e+00 9.0710997055136957e+00 5.4363613506371156e+00 0 0 0
399 2 8.4188034450775753e+00 2.0010808663143650e-01 9.4305358190824373e-01 0 0 0
587 2 -1.7230934208710753e+00 6.9106834422900105e+00 9.1162234549041887e+00 0 0 0
156 2 1.2349872317208687e+01 4.8561665357801392e-01 2.5498055001804683e+00 0 0 0
301 1 1.5302173051407079e+01 1.1195709979333362e+01 6.7002938366594051e+00 0 0 0
220 1 3.7535777240757562e+00 1.0895388112375672e+01 3.4659492028889463e+00 0 0 0
209 2 3.7593942029284406e+00 1.0810647965271253e+01 7.4561009484951368e+00 0 0 0
273 2 1.0813136795877716e+01 1.0509217216126054e+01 2.2912337600906688e-01 0 0 1
290 2 1.6040051762291178e+01 1.0887759018887412e+01 2.6127542571078024e+00 0 0 0
237 2 1.4687877871616095e+01 7.7969012439327736e+00 7.7062026949008011e+00 0 0 0
584 2 2.5894213025308002e+00 7.5489790330684914e-01 9.3078292293073837e+00 0 0 0
585 2 3.2778145688428069e+00 2.0859009816402643e+00 9.0449543893177413e+00 0 0 0
254 2 1.5741172182003510e+01 9.7240532196763407e+00 5.4321237353297214e+00 0 0 0
271 1 9.9559939910827087e+00 1.0066843326601226e+01 4.7838322674364941e-01 0 0 0
606 2 1.0488522163912393e+01 4.0927375591253865e+00 9.5565755198750377e+00 0 0 0
293 2 1.2325675256748552e+01 1.0760170197982916e+01 7.4976785489140179e+00 0 0 0
152 2 7.7312652585831145e+00 6.6614121741534815e-01 7.7317024677877457e+00 0 0 0
671 2 8.0528403170419462e+00 5.5389152876554189e+00 8.9739987491170279e+00 0 0 0
165 2 1.6584853918906663e+01 6.7307101065000474e-01 1.0871923459467525e+00 0 0 0
189 2 2.0081459499479193e+00 1.0633625147292127e+01 2.1390333123781696e-01 0 0 0
610 1 1.3200598395521183e+01 2.3589641042814185e+00 2.5387529327198022e-01 0 0 1
667 1 1.2349074381901133e+01 1.4599011704067144e+00 9.5144701908861702e+00 0 0 0
586 1 -1.0519307164786182e+00 6.3102867126589892e+00 9.5229841274144675e+00 0 0 0
22 1 3.1314084972971168e-01 2.8791276904683376e+00 9.6459203694442994e+00 0 0 0
608 2 6.0532315573021780e+00 3.6943750599832530e+00 9.4886420106285669e+00 0 0 0
218 2 7.4595324130554115e+00 1.1200686857397292e+01 7.1196189872321902e+00 0 0 0
331 1 1.6133058541425974e+01 9.0125345764664697e+00 2.2436835185064027e-01 0 0 0
100 1 1.4710506043996908e+01 4.5580387751545501e+00 3.5274616421575589e-01 0 0 0
247 1 6.9693003976975518e+00 9.2546674716505013e+00 2.5343973590229663e-01 0 0 0
778 1 1.2657942235463594e+01 1.0509185927800178e+01 2.4201540359495774e-01 0 0 1
168 2 4.4860782048133903e+00 6.8368322330927969e+00 1.8540703266013431e+01 0 0 0
711 2 2.4370791371801079e+00 1.0479713687242569e+01 1.2686421944554555e+01 0 0 0
107 2 9.5831257083109662e+00 2.1180721922587042e+00 1.0318486064987518e+01 0 0 0
670 1 7.7507003819955695e+00 5.9979559538053122e+00 9.7788296149814791e+00 0 0 0
777 2 6.1097869294382665e+00 1.1011116098032526e+01 9.9716793537577164e+00 0 0 0
188 2 -5.7352956597256659e+00 9.4419617413777672e+00 1.8873229454462457e+01 0 0 0
164 2 8.8607136135076985e+00 7.7607542577055622e-01 1.8902865570303589e+01 0 0 0
751 1 3.7842650326171094e+00 8.9522904112779624e+00 1.0024262599761711e+01 0 0 0
571 1 -5.4346176950518945e+00 4.2224651177468508e-01 1.7950294516735791e+01 0 0 0
721 1 3.5965023170519217e+00 1.0734790252935325e+01 1.6111560049939929e+01 0 0 0
588 2 -1.4748553041247043e+00 5.7687283843286403e+00 1.0258016684424421e+01 0 0 0
823 1 3.6247937920667557e+00 8.0212902679246252e+00 1.7686780293684045e+01 0 0 0
536 2 -3.1358562623184802e+00 4.2024712898813110e-01 1.2095491417144085e+01 0 0 0
249 2 4.9526159658677305e-01 9.6148378823789127e+00 1.8513167405339569e+01 0 0 0
833 2 7.0765918608611003e+00 9.3761317841842473e+00 1.3724621811040409e+01 0 0 0
725 2 2.5673906972070171e-01 1.0973399212660162e+01 1.2615720180134874e+01 0 0 0
834 2 5.9504896604506650e+00 1.0487585239518410e+01 1.3948020615047717e+01 0 0 0
104 2 3.1560577683289530e+00 3.7915568296546049e+00 1.9078411879811288e+01 0 0 0
505 1 2.7779723637458371e+00 9.3357668666111671e-01 1.4557466817502009e+01 0 0 0
506 2 3.0195049873533391e+00 1.7553396984380236e+00 1.5000731110956579e+01 0 0 0
658 1 9.1173919824345386e+00 4.4297647355511238e-01 1.1198593882521514e+01 0 0 0
508 1 1.7639569870300331e-01 1.1347360751972821e+00 1.4659636616564494e+01 0 0 0
775 1 6.7640057647134100e+00 1.0295106591474891e+01 1.0082027163210407e+01 0 0 0
510 2 1.1453847838637472e+00 1.0260395402410756e+00 1.4511096420105075e+01 0 0 0
511 1 -3.5302191975550459e+00 6.4742693728051490e+00 1.4513209173658911e+01 0 0 0
512 2 -3.6594043111401922e+00 5.7628123810398897e+00 1.3872518505100325e+01 0 0 0
513 2 -3.8066176463419561e+00 6.1207571817485436e+00 1.5387662045171414e+01 0 0 0
514 1 -6.9895253361566301e-01 6.5089211806840268e+00 1.4264835985575145e+01 0 0 0
515 2 -5.2145733450300558e-01 5.7340186682404877e+00 1.4769048099076477e+01 0 0 0
516 2 -1.6411648584426031e+00 6.5137863426323337e+00 1.4279832521943430e+01 0 0 0
752 2 3.4847661722931442e+00 9.4300352852144744e+00 1.0775787929443933e+01 0 0 0
519 2 1.7289811058651594e+00 5.6111277206179100e+00 1.8087520784549017e+01 0 0 0
835 1 1.2565318241887010e+01 8.7481338158111281e+00 9.8648096470921711e+00 0 0 0
522 2 1.8084216424916759e+00 5.3863755671686384e+00 1.0654590586694965e+01 0 0 0
732 2 -4.0095388429353385e-01 1.1206507181991720e+01 1.6461242676434594e+01 0 0 0
23 2 8.6525013743501811e-01 3.6660464405337394e+00 9.8986545569827609e+00 0 0 0
525 2 -2.6787901365543219e+00 2.2942165941190269e+00 1.0773059329647847e+01 0 0 0
808 1 9.3741481198039391e+00 1.0764063318459058e+01 1.3155773163943842e+01 0 0 0
527 2 -2.9851010899223258e+00 2.2761637808893354e+00 1.8354583185353700e+01 0 0 0
529 1 1.4983643944341001e+00 6.6804223643987148e+00 1.6672327138645418e+01 0 0 0
530 2 1.4347299920297507e+00 6.0531624839048224e+00 1.5912281989174378e+01 0 0 0
531 2 5.4694491766424314e-01 7.0171959738926732e+00 1.6804156583135438e+01 0 0 0
532 1 2.0346015820131047e+00 6.3424982469421725e+00 1.2063872514814744e+01 0 0 0
533 2 2.9024582163311781e+00 6.7586264598158481e+00 1.1926962570650527e+01 0 0 0
534 2 1.9494770299530515e+00 6.0888240739483432e+00 1.2984785416615511e+01 0 0 0
535 1 -2.4566208110974257e+00 1.0716729661162798e+00 1.2346361199379656e+01 0 0 0
593 2 9.0387918534062806e+00 7.5834112712156981e-02 1.4595320480833861e+01 0 0 0
537 2 -1.6277086689054947e+00 5.5285822878059132e-01 1.2216853526956298e+01 0 0 0
538 1 -2.8153605706923264e+00 1.2173817659693338e+00 1.6902780955534098e+01 0 0 0
539 2 -3.6297962571018738e+00 8.3629352281546787e-01 1.7271564863170077e+01 0 0 0
540 2 -3.0218333506500037e+00 1.5505267223999328e+00 1.6006799080761226e+01 0 0 0
541 1 2.8153248536043360e+00 2.5504819292067014e+00 1.2118413969670843e+01 0 0 0
542 2 2.9715424108351556e+00 1.8712615490236790e+00 1.2777037775962381e+01 0 0 0
543 2 2.8659897017573526e+00 2.0907224204692998e+00 1.1240961795765262e+01 0 0 0
544 1 6.4021705021846564e-01 2.6853646758578522e+00 1.6966998979304847e+01 0 0 0
545 2 6.9126449965288916e-01 2.1747161897474561e+00 1.7796964686345284e+01 0 0 0
546 2 6.0575685430252157e-01 1.8959071644557626e+00 1.6366816890804778e+01 0 0 0
547 1 -3.5978015981047586e+00 4.9050669312926249e+00 1.7000956840966548e+01 0 0 0
548 2 -4.0808016459732013e+00 4.1869453032029433e+00 1.6557208703548344e+01 0 0 0
549 2 -3.9903480515437169e+00 5.1605451559197775e+00 1.7853834629102352e+01 0 0 0
550 1 -1.4165946346196638e+00 5.0585918730957902e+00 1.1817702463907192e+01 0 0 0
551 2 -7.1153751211020166e-01 4.4004840497853692e+00 1.2135807898319767e+01 0 0 0
552 2 -1.1744628556419534e+00 5.7200573297692454e+00 1.2513547144709893e+01 0 0 0
553 1 3.1352018344349357e+00 3.3093911163085470e+00 1.5950349493985982e+01 0 0 0
554 2 2.2410147171312520e+00 3.1305548063357720e+00 1.6380085482780281e+01 0 0 0
555 2 3.7849844188754265e+00 3.7029040661902579e+00 1.6650822034273791e+01 0 0 0
556 1 3.4883785311160498e-01 3.1741255380988069e+00 1.3026649382044596e+01 0 0 0
557 2 1.1194096844664116e+00 2.8516038666980736e+00 1.2513999891281850e+01 0 0 0
558 2 2.0370064591030967e-02 2.4624097180785913e+00 1.3650422407898551e+01 0 0 0
559 1 -3.9045691976540748e+00 4.1812949800174639e+00 1.2858523848723522e+01 0 0 0
560 2 -3.0916835593767029e+00 4.2409774281711226e+00 1.2309251720369057e+01 0 0 0
561 2 -3.6121188414241825e+00 3.6165968074235568e+00 1.3568738899369654e+01 0 0 0
562 1 -1.2047816244554959e+00 4.5465813771975441e+00 1.5871013608626729e+01 0 0 0
563 2 -5.9414302129406860e-01 3.8860861593794209e+00 1.6300605254341541e+01 0 0 0
564 2 -1.9367169327114753e+00 4.8580574966725196e+00 1.6430478104823614e+01 0 0 0
565 1 4.8559430531861398e+00 6.9592387322052414e+00 1.1436796310967132e+01 0 0 0
566 2 4.6585800422196684e+00 7.7096972131132251e+00 1.0813401059980293e+01 0 0 0
567 2 4.9724095813629230e+00 6.2051263938919572e+00 1.0847422646449065e+01 0 0 0
568 1 -9.3397914291859596e-01 7.1670792730895698e+00 1.7511312762391199e+01 0 0 0
569 2 -1.1806707816704529e+00 6.2785917045182362e+00 1.7922007973363094e+01 0 0 0
570 2 -6.9679045832912934e-01 7.7261576586551017e+00 1.8285279429199829e+01 0 0 0
776 2 7.7036771110405162e+00 1.0477611717881611e+01 9.8990561504660821e+00 0 0 0
572 2 -5.6780285023943513e+00 1.2315816913825914e+00 1.8452225732258736e+01 0 0 0
507 2 3.5525370464144208e+00 3.7736143476903605e-01 1.4533930672257600e+01 0 0 0
986 2 1.3094668047091675e+01 3.8662280916781794e-01 1.0834774215026439e+01 0 0 0
576 2 3.1759005167862053e-01 1.1283506677333721e+00 1.0608338209183033e+01 0 0 0
577 1 1.8994574594544487e+00 5.0075059361657956e+00 1.4479899431946849e+01 0 0 0
578 2 1.2061462554120386e+00 4.3652073153250113e+00 1.4029286919134831e+01 0 0 0
579 2 2.5866022872634380e+00 4.4755201483654288e+00 1.4933926792508682e+01 0 0 0
580 1 -2.9073185732310618e+00 2.4209576561041630e+00 1.4546417326378563e+01 0 0 0
581 2 -2.6558997356731044e+00 1.8882277439675412e+00 1.3744759169586983e+01 0 0 0
582 2 -2.1035064793237952e+00 2.9467148375976269e+00 1.4766240685088562e+01 0 0 0
724 1 9.4869060516801262e-01 1.0645793617757253e+01 1.3214895465038779e+01 0 0 0
696 2 -2.4133925138313286e+00 1.1019278388233294e+01 1.9193481696177034e+01 0 0 0
589 1 1.2291457809686200e+01 9.6831153639431722e-01 1.4464211224954603e+01 0 0 0
692 2 -3.0257780337329256e+00 1.0944029940613598e+01 9.9111342356391479e+00 0 0 0
591 2 1.2266041965790652e+01 1.7191432601637462e+00 1.5072883703025168e+01 0 0 0
592 1 9.5796767087982317e+00 8.4088912321132381e-01 1.4890544485071164e+01 0 0 0
620 2 5.9080084979953487e+00 5.4121423697542637e-01 1.1669397260911621e+01 0 0 0
594 2 9.4597943464515968e+00 1.5652404822412043e+00 1.4316529365581950e+01 0 0 0
595 1 4.6843400053823165e+00 6.3581980520594099e+00 1.5016454086670059e+01 0 0 0
596 2 4.8960052524485729e+00 5.7977369719248486e+00 1.5794725321392090e+01 0 0 0
597 2 4.5685015857519824e+00 5.7410648649546578e+00 1.4310776184500014e+01 0 0 0
598 1 7.6474450498688382e+00 6.3380448506399079e+00 1.4802323758077264e+01 0 0 0
599 2 6.7382370143777512e+00 6.6210642014703502e+00 1.4950312214759743e+01 0 0 0
600 2 7.4869254824816984e+00 6.0070200727397616e+00 1.3894390854621925e+01 0 0 0
105 2 3.3366278768835222e+00 2.2960674330170723e+00 1.8726647477894925e+01 0 0 0
603 2 1.0582603586111134e+01 5.1377090971854962e+00 1.8298549676628010e+01 0 0 0
590 2 1.1410636368852115e+01 5.4941480384168806e-01 1.4651529013397207e+01 0 0 0
605 2 1.1343059842359395e+01 5.1505427689771661e+00 1.0332997195098619e+01 0 0 0
98 2 1.4036683044969644e+01 5.5745889251496337e+00 1.0320154421380428e+01 0 0 0
106 1 9.4133287734930065e+00 3.0313415675947777e+00 9.9747254328152550e+00 0 0 0
805 1 -5.1432213543968457e+00 1.1102382490275266e+01 1.5727661878446497e+01 1 0 0
609 2 6.2793490667962581e+00 2.5063293730221479e+00 1.0479574642603355e+01 0 0 0
828 2 8.7181999443776022e+00 7.7077997055285401e+00 1.1637326669363382e+01 0 0 0
611 2 6.3309236765955079e+00 1.9243515778722797e+00 1.8451016973347752e+01 0 0 0
613 1 1.0189902593245684e+01 6.2482873442338649e+00 1.6946766554329269e+01 0 0 0