LAMMPS data file via write_data, version 3 Mar 2020, timestep = 0

2016 atoms
2 atom types

0.0000000000000000e+00 1.7932347972310829e+01 xlo xhi
-1.2835600415044617e+00 4.6279720018419965e+01 ylo yhi
0.0000000000000000e+00 1.9071219452241817e+01 zlo zhi
4.5503681379677474e-02 -6.6666060924694293e+00 -2.4219822962677995e-02 xy xz yz

Masses

1 16
2 2

Atoms # atomic

579 2 2.8748015862623939e+00 7.1784215179746980e+00 1.4440749351198869e+01 0 0 0
223 1 -2.2679918966234185e+00 8.9840447465019313e+00 1.7285862284392298e+01 -2 0 -2
995 2 7.8890530072339367e+00 6.5183434564398519e+00 1.1210405812636294e+01 3 0 1
654 2 7.2451947590059840e-01 5.5244289407369473e+00 3.7850212766596911e+00 -1 0 0
394 1 8.2422587713153170e+00 2.9307233863795892e+00 3.5393459953712605e+00 -3 0 -3
578 2 4.3166322621512005e+00 7.0952464283607863e+00 1.4355799094192546e+01 0 0 0
929 2 1.4088526187599459e+01 4.1533020185695237e+00 5.7756809531425439e+00 0 0 0
540 2 3.3126849262265767e+00 1.1455609405604008e+00 3.7621410660770245e+00 -4 0 -3
705 2 -2.2684628207991464e+00 4.4021968536420317e+00 1.4055886800520156e+01 -2 0 -1
302 2 1.3053243436448909e+00 5.1122544743942839e+00 1.8824247516009859e+01 0 0 -1
299 2 -5.5827170432070776e+00 1.1291111512585923e+00 1.7599420367049419e+01 -2 0 -2
896 2 7.9117731553570838e+00 8.1105173152838290e+00 1.8562039749999453e+01 -1 0 -1
150 2 9.9975989669500329e+00 1.0017100967611146e+01 1.8084633317445711e+01 -4 0 -1
406 1 2.2891760813365272e+00 2.1793976054069786e+00 1.3105933984667294e+01 -2 0 -2
163 1 1.0786018798932410e+01 7.2306225628744532e+00 9.3461527774561581e+00 2 0 0
596 2 1.9156168251074943e+00 5.7327430679246634e+00 6.1198058399655233e+00 3 0 -2
368 2 1.3029807722318660e+01 8.6145004989107559e+00 1.2119276920794377e+00 -2 0 0
670 1 3.2176242431776370e-01 -3.9529098801206741e-01 7.2451292399739788e+00 -3 0 -1
881 2 1.0024022784950429e+01 1.7194447874752838e+00 7.6778139618178258e+00 -3 0 2
319 1 1.1088169624044525e+01 5.8994120942365225e-02 1.4965200893006617e+01 -4 0 -3
53 2 1.1780109375719260e+01 4.5418642123934871e+00 1.1291081420773845e+00 2 0 0
165 2 1.0875770280438440e+01 6.8239323403956487e+00 8.4867780874626515e+00 2 0 0
609 2 3.8997765516555294e+00 1.5434878915875716e+00 1.0702233553497760e+00 -3 0 0
1583 2 -4.5952804106941727e+00 8.8647301421213998e-01 1.5357507265204765e+01 0 1 1
122 2 9.1710975973374698e+00 5.6167637977253699e+00 1.4155196314646643e+01 -2 0 -1
295 1 1.6002395212087890e+01 8.7668451852446836e+00 5.3601107773777663e+00 1 0 3
407 2 2.2626713360720769e+00 1.4079234161143463e+00 1.3734815051658661e+01 -2 0 -2
707 2 1.0711705686281556e+00 6.1621867717653949e+00 1.5382137348864784e+01 -1 0 -1
536 2 9.5217920388575692e+00 9.7057600786148939e+00 7.1222560984430405e+00 -3 0 2
448 1 6.4796766791799048e+00 5.7352809429141951e+00 1.1066860420924748e+01 -1 0 1
244 1 1.0892375235502900e+01 8.5317374039995766e+00 1.7946341692598445e+01 -4 0 -4
672 2 2.9928785879191100e-01 4.4860251148256336e-01 6.6911587713339253e+00 -3 0 -1
687 2 2.4952934799164064e+00 7.0174677272677899e-02 1.1049266320392256e+01 -3 0 0
841 1 -9.6504635372432279e-01 -7.1976579260069096e-01 1.6331639514960113e+01 -5 0 -5
746 2 1.1969826065176647e+01 6.9951990035233234e+00 1.3030120939049148e+01 -3 0 0
301 1 7.4479458886865144e+00 4.4408384185083216e+00 1.7180336662387147e-01 0 0 0
950 2 2.3606247994693668e+00 -6.9443123583234234e-02 1.8072947512068391e+00 -1 0 2
831 2 1.9682483031817326e+00 9.9830694995288187e+00 5.7974623922789297e+00 -3 0 0
549 2 7.9146062400159343e+00 7.7964695457931636e+00 1.5330746024853664e+01 -3 0 -4
449 2 5.6920318786425259e+00 6.2071262020867142e+00 1.0670742287642696e+01 -1 0 1
524 2 3.5173808169255683e+00 3.5600086172156349e+00 1.3913984028355392e+01 -2 0 -4
585 2 -3.5968962300924305e+00 7.6429092248613113e+00 1.0820715111920656e+01 -4 0 -4
523 1 4.2273438424221661e+00 3.6530460995636131e+00 1.4542332169224117e+01 -2 0 -4
658 1 6.7259607081640898e+00 4.0969024858789203e+00 1.3230557839640163e+01 -1 0 -2
206 2 3.1763121961614136e+00 2.6326142176385385e+00 1.1611141000598586e+01 3 0 0
96 2 -4.5973754608636064e-01 4.3898734954494492e+00 4.8224709114241611e+00 -1 0 -1
441 2 2.0134143989621656e-02 6.5464214397706817e+00 1.2145370478453753e+01 -2 0 -1
151 1 6.0130774948740182e+00 9.4906393679428369e-01 3.6141502457191259e+00 3 0 0
781 1 1.3890140779622984e-01 7.9897075432584348e+00 2.5388082747279825e+00 -2 0 -2
880 1 1.0664324571973816e+01 1.8132947734602318e+00 8.4355646404149152e+00 -3 0 2
626 2 1.9542113990708279e+00 2.4433616394953592e+00 1.6911948945998066e+01 0 0 -1
429 2 -1.6704698525479791e+00 8.0419386937211890e+00 1.3670239250298005e+01 0 0 -1
703 1 -2.1004064375719875e+00 5.0725437079727467e+00 1.4767821664708139e+01 -2 0 -1
382 1 1.5407437803196977e+01 5.8998765643296682e+00 1.0898850699802995e+00 -2 0 1
21 2 6.7042594073306478e+00 6.7451616155244096e+00 2.9695078052032473e+00 -3 0 -3
605 2 1.3138759247690222e+01 5.1379390807044145e-01 1.0423720923296289e+00 0 0 2
54 2 6.0962415041846443e+00 4.0407539292547954e+00 1.8947359768863663e+01 2 0 -1
6 2 4.0003142979546631e+00 9.0390857517713137e+00 6.7474085026314077e+00 1 0 0
689 2 1.8858631398288646e+00 2.0020736333164639e+00 6.4089692786614698e+00 -2 0 0
85 1 1.6671241843076274e+01 -3.6379480005401543e-01 5.0556078877922939e-01 1 0 -2
392 2 -1.5980638714311590e-01 8.2580452602946242e+00 8.6540087968595731e+00 -1 0 -1
652 1 1.4355171580717951e-01 5.2652231683926045e+00 3.0217315575583354e+00 -1 0 0
52 1 1.2068833519836712e+01 3.7606044573635113e+00 5.2761203538544665e-01 2 0 0
356 2 -4.3027601271123350e+00 4.5779962276756949e+00 1.7062336938613090e+01 -4 0 -3
477 2 7.2104403873805278e+00 2.8015365479005716e+00 1.2358693754291718e+01 -1 0 2
500 2 -1.0403096361585531e+00 2.6346753203894564e+00 1.2666277306963851e+01 1 0 0
367 1 1.3195227210749714e+01 9.3409141741099013e+00 5.6957544754159217e-01 -2 0 0
806 2 1.2320142730484681e+01 8.0623275917976578e+00 4.7876115386301041e+00 -4 0 1
789 2 4.2638759555209056e+00 8.0385479089737455e+00 3.0974560308423680e+00 -2 0 0
810 2 6.6120549791613108e+00 6.8351047425009277e+00 6.6492617259841733e+00 -4 0 -1
930 2 1.4605831677803891e+01 3.2253418032320766e+00 4.7417728085188653e+00 0 0 0
702 2 4.9336947099927739e+00 8.2774845056295465e-01 1.8407072595762990e+01 -3 0 -3
501 2 -6.7945304126801620e-01 1.0982198717585723e+00 1.3032286706397320e+01 1 0 0
625 1 1.0877358741882759e+00 2.0735158988236240e+00 1.6593012928474870e+01 0 0 -1
502 1 5.1825807642742081e+00 -4.2350582135093129e-01 9.8640953000746556e+00 0 0 -1
101 2 3.9456619797644503e+00 6.3710042180030442e+00 1.2096224666741744e+01 -1 0 -1
384 2 1.5422036895413184e+01 6.2589975606442856e+00 2.0162826683051644e+00 -2 0 1
245 2 1.0056513595116794e+01 8.0577413417306794e+00 1.8127976371275388e+01 -4 0 -4
622 1 -3.9249934906748587e+00 3.3181846667726429e+00 1.8165409575921284e+01 -2 0 -2
624 2 -2.9439875754944551e+00 3.3296900440514232e+00 1.8228930364538662e+01 -2 0 -2
179 2 6.2393672960415261e+00 5.2713847410511301e+00 1.7140054367355926e+01 -3 0 -1
846 2 6.7386372508089325e+00 -3.4424883018490038e-01 1.2720516255560076e+01 1 0 1
980 2 1.1302924507505775e+01 9.9898088399937190e+00 8.1855284365175187e+00 -2 0 0
185 2 2.4306797962859239e-01 1.4540031855688178e+00 1.7878886552915365e+01 -4 0 -7
926 2 -2.9559083416691276e+00 -9.3775775209088041e-01 1.2293935398463061e+01 2 0 2
600 2 -9.7903047730130144e-02 1.5377090620313361e+00 9.7605679834256964e+00 -3 0 1
49 1 9.5946304581730306e+00 3.5840848296708590e+00 1.0293000058469266e+01 -1 0 0
183 2 1.1815303097358917e+01 4.6324159421590396e+00 6.9975744295253683e+00 -1 0 0
132 2 1.2072345749704223e+01 1.0468430021516276e+01 1.5787028239260504e+01 -1 0 0
393 2 1.3637864485573692e-01 7.5393248810944957e+00 1.0078368113852283e+01 -1 0 -1
708 2 9.3016674123308363e-01 7.7468629519898631e+00 1.5583211819388005e+01 -1 0 -1
671 2 2.0820824476394240e-01 3.7434003557279105e-02 8.1692445728965026e+00 -3 0 -1
135 2 1.4696034226367495e+01 1.3699179302753892e+00 7.7232697629379778e+00 0 0 -1
275 2 1.3890200633100491e+01 -1.1620064817037616e+00 2.1294467106927710e+00 2 0 0
606 2 1.2351038321288298e+01 1.9353768446367452e+00 8.3174998761631314e-01 0 0 2
598 1 -5.1044492105452255e-01 6.7912607651684787e-01 9.4954850674495628e+00 -3 0 1
120 2 4.4077234480939467e+00 5.5572899814953445e+00 2.6999701788144801e+00 -2 0 -2
858 2 -4.3037822862225372e-01 4.5139483135271083e+00 7.1799502919653477e+00 -1 0 -3
640 1 9.9080054046831023e-01 4.9141941175567760e+00 1.2163973090888847e+01 4 0 -1
753 2 1.1148480955963791e+01 5.1747293897032032e+00 1.8281727526802680e+01 -1 0 2
619 1 1.6847354571000470e+00 9.5601493231079839e+00 6.0874335956712289e-01 -3 0 0
119 2 3.3138081644792221e+00 5.9985063719874177e+00 3.7281710184218895e+00 -2 0 -2
525 2 5.0015880857199759e+00 4.0399622587029036e+00 1.4038349417199573e+01 -2 0 -4
495 2 3.3593809487171700e+00 7.5687218914746275e+00 8.2883247582959179e+00 -3 0 -2
829 1 2.8249010715829148e+00 1.0277915849721534e+01 6.1313043037344972e+00 -3 0 0
175 1 4.8412697163714871e+00 -8.9824397999482208e-01 1.2659662518453686e+01 -5 0 1
212 2 1.1233896785286815e+01 6.6624568019248809e+00 6.3822089420017747e+00 -5 0 -2
701 2 4.5015107974673025e+00 2.0704616607004116e+00 1.7505757219941813e+01 -3 0 -3
5 2 4.8724303386933094e+00 7.8392115858403955e+00 6.5109258261774707e+00 1 0 0
470 2 1.0613928197026767e-01 2.2561035584963753e+00 2.0197974430634096e+00 -6 0 -2
471 2 1.7351060576751113e+01 9.1970151789175336e-01 1.6471597983504336e+00 -6 0 -2
142 1 1.5599460944929948e+00 9.6724212640653189e+00 1.8006778512170730e+01 2 0 -1
48 2 7.1961623978405989e+00 9.7579680358668810e+00 5.9173740090085953e+00 -3 0 0
527 2 5.2501770190191905e+00 2.8830995206404730e-01 4.9294868123461928e+00 -2 0 0
992 2 -3.2861423240081953e+00 9.2785643658024552e-02 9.4959027723962812e+00 2 0 1
856 1 -3.0647470945334376e-01 4.7732883737189100e+00 8.1040925578697909e+00 -1 0 -3
627 2 1.3921218945071310e+00 1.4081200643372767e+00 1.5925532669439823e+01 0 0 -1
111 2 9.4944953378291395e+00 1.9930460516940873e+00 3.6994940101044571e-01 1 0 -3
869 2 1.2913656372782985e+01 3.7777911552109753e+00 1.0123074845668862e+01 1 0 0
16 1 6.4364002253647978e-01 4.7558107477061329e+00 1.4876219197004740e+01 0 0 1
178 1 7.1161406449269853e+00 5.1185839370305910e+00 1.7517344724784170e+01 -3 0 -1
974 2 1.0521877950318654e+01 7.9327630570322460e-01 1.6609520350403052e+01 -4 0 -2
118 1 3.6808143539929872e+00 6.1882988004141550e+00 2.8509335093086570e+00 -2 0 -2
922 1 1.9858519571859095e+00 9.1387336421374297e+00 1.2216180933228914e+01 -3 0 -3
623 2 -4.1463853849376697e+00 2.3932568446126798e+00 1.7780861287426440e+01 -2 0 -2
1668 2 7.5688651924106995e+00 4.5328998903815423e+00 1.3536649917785960e+01 -1 1 -2
644 2 9.7867482126032694e+00 3.6768198316649858e-01 1.0748605815897728e+01 -4 0 -3
503 2 5.2986171290510811e+00 -3.3131059437547694e-01 1.0847819690937342e+01 0 0 0
83 2 1.3578835168171208e+01 9.3847305702482728e+00 7.6982000683779503e+00 -1 0 -3
239 2 3.7938094289702997e+00 3.8037634814297778e+00 1.6294242416632017e+01 0 0 0
716 2 5.0316852834231423e+00 3.5882869332900285e+00 1.7715766439837677e+00 1 0 2
717 2 6.1591286494905901e+00 4.4830765703082731e+00 1.0766107427326714e+00 1 0 2
240 2 3.4210412609965379e+00 4.6375550659692744e+00 1.7485014516701881e+01 0 0 0
904 1 6.3639958051153620e+00 7.5570437985462764e+00 1.2566411124374413e+00 -3 0 2
17 2 9.3206681426103888e-01 4.5689029305072495e+00 1.3939520577895415e+01 0 0 1
851 2 1.1783481910359956e+01 8.9694157355776092e+00 1.3656911096224304e+01 0 0 1
369 2 5.8673089401464500e+00 9.2136089728157717e+00 1.8890718751146565e+01 -2 0 -1
645 2 1.1181604952928593e+01 -9.3603563044834415e-02 1.1067550325095358e+01 -4 0 -3
613 1 -1.2760568985464875e+00 3.7692302768359101e+00 1.7508579458181263e+01 -2 0 -1
246 2 1.1442524943378501e+01 7.9126388848203870e+00 1.7403774475369911e+01 -4 0 -4
238 1 3.5158877515885214e+00 3.6750793516342872e+00 1.7196168915782597e+01 0 0 0
522 2 7.8677566081254557e+00 -1.6849507669682295e-01 9.9482757471454448e+00 -5 0 -2
715 1 5.4127181063059044e+00 4.4770477266178998e+00 1.7858196542338289e+00 1 0 2
115 1 1.2157805049228401e+01 3.7438633214535120e+00 1.4404019946251950e+01 -5 0 -5
426 2 1.4451814900830783e+01 2.5967438810778503e+00 2.6823277289029375e+00 -2 0 1
494 2 1.8921361457497121e+00 7.4172307239148143e+00 8.7544482629264824e+00 -3 0 -2
979 1 1.0450089317899065e+01 9.7029362961676746e+00 8.6513393925540036e+00 -2 0 0
511 1 7.4920800378516397e+00 -1.2563029475188459e+00 1.6255839681196399e+01 1 0 0
933 2 -2.5771941466653536e+00 1.7355495284966125e+00 1.5273259552763006e+01 -2 0 -1
857 2 1.8270290028854985e-01 5.6368895580093801e+00 8.1944315357326296e+00 -1 0 -3
868 1 1.3546623125599147e+01 3.5745947440459513e+00 9.4338854033093824e+00 1 0 0
699 2 2.2579664370689985e+00 6.5279320163179602e+00 1.7277270903757433e+01 2 0 3
18 2 9.7613897021449869e-01 4.0372359297325975e+00 1.5456482506488493e+01 0 0 1
559 1 8.6813647132183611e+00 -8.5384203738433651e-01 6.8748188150055256e+00 -2 0 1
987 2 -8.7173185216676785e-01 9.3210204817222007e+00 1.5955073855673605e+01 -2 0 -3
785 2 1.2032727939109353e+00 4.3482483373639411e+00 1.9339783157719033e+00 -3 0 -2
870 2 1.4284431583535865e+01 4.1331814492681405e+00 9.6198274854282193e+00 1 0 0
211 1 1.0700559326534277e+01 6.0031176406648932e+00 6.7707670033044876e+00 -5 0 -2
387 2 2.8000628025300647e+00 2.9375459960607042e+00 4.6113553787119539e+00 0 0 -2
229 1 2.9194773608533726e+00 1.5622705504985781e+00 7.8885660129778321e+00 0 0 -2
643 1 1.0433152930478201e+01 3.4364670654027818e-01 1.1491319561010767e+01 -4 0 -3
747 2 1.2338483945591653e+01 7.2441107554643747e+00 1.4544236687176635e+01 -3 0 0
951 2 1.6880115397613245e+00 -8.5069773486816147e-01 5.8906109863637690e-01 -1 0 2
274 1 1.4158414211424935e+01 -8.3774769426364415e-01 1.2598098043878683e+00 2 0 0
116 2 1.2582994365736283e+01 2.8640218940910378e+00 1.4408589013256087e+01 -5 0 -5
224 2 -2.0460096689110872e+00 8.0555402375517318e+00 1.7608667541184932e+01 -2 0 -2
845 2 7.6164339417591140e+00 6.3144401047416610e-01 1.1966752217793807e+01 1 0 1
915 2 9.1404723499071068e+00 -1.2383216544749140e+00 1.2959253917266063e+01 0 0 2
117 2 1.2637218374940119e+01 4.2054212162257594e+00 1.5132493516929129e+01 -5 0 -5
931 1 -1.5393423609102310e+00 1.7772691255430271e+00 1.5550703596074309e+01 -2 0 -1
698 2 2.4924067985041347e+00 6.9545988953518680e+00 1.8807989560983003e+01 2 0 3
385 1 3.3989773619184649e+00 3.2862193373475606e+00 3.9216194601426033e+00 0 0 -2
949 1 2.1727481472059931e+00 -5.9850836675243713e-03 8.0647692763038625e-01 -1 0 2
961 1 1.6410332880468621e+00 1.3659230319478199e-01 1.4877396047276761e+01 -3 0 -1
42 2 3.5451185166592345e+00 4.4551590953019735e+00 7.1135731943310345e+00 -2 0 3
726 2 1.4059501528004461e+01 6.6698548851935824e-01 5.7466172691235808e+00 1 0 1
876 2 1.2511598966878166e+01 5.7059712921254135e+00 1.1336118796562126e+01 -3 0 1
769 1 -2.1005978522911324e+00 4.9407775197214052e+00 1.0217602954855288e+01 1 0 -3
1002 2 1.0455700916661678e+01 4.1666718135378531e+00 4.4341760335345937e+00 -1 0 1
4 1 4.4367947024690588e+00 8.3051085211230884e+00 7.2171381320452301e+00 1 0 0
905 2 5.9000890289932322e+00 6.9254692775709206e+00 6.9211959193934636e-01 -3 0 2
41 2 2.8888511052529124e+00 5.4496987760873505e+00 8.1094626699220971e+00 -2 0 3
222 2 -4.2572625118401817e+00 8.3038930348727664e+00 1.6718264494213152e+01 -2 0 -3
812 2 1.1083315737853017e+01 3.8806790443771098e+00 1.1317606717776576e+01 -2 0 -1
932 2 -1.0409989982593313e+00 2.0572914091185175e+00 1.4765397241583084e+01 -2 0 -1
506 2 3.3557867846609009e+00 9.1006500489144226e+00 1.7982929122244240e+01 -4 0 -3
213 2 1.0214015839286132e+01 5.5515533504286303e+00 6.0104151806277777e+00 -5 0 -2
166 1 9.5848716564933927e+00 1.0328546917189847e+01 1.9729020058547793e+00 -4 0 -3
184 1 -8.1566822411791584e-02 8.1131874385182012e-01 1.8522660591199848e+01 -4 0 -7
338 2 4.1150941021115939e-02 8.8955581546774649e+00 5.6425487361657716e+00 -1 0 -1
938 2 8.0761803906153915e+00 7.5204928321130762e+00 1.4901892233581526e+00 1 0 1
969 2 1.7054441560919473e+00 3.0591088333251939e+00 1.0081261943887515e+01 -1 0 1
545 2 4.8393771177877616e+00 1.7510830552428502e+00 1.4628166121784957e+01 2 0 1
386 2 2.7901584524043037e+00 3.5453912053405849e+00 3.1697319619108231e+00 0 0 -2
937 1 9.0608004509864486e+00 7.6198305100068637e+00 1.3207095417617121e+00 1 0 2
40 1 2.8620508780173122e+00 4.5308420348105187e+00 7.7755293166554127e+00 -2 0 3
786 2 2.1198323630063909e+00 3.6098911051923173e+00 8.9108523756172742e-01 -3 0 -2
621 2 2.3632012087191572e+00 8.8298818515555606e+00 5.6743840461067352e-01 -3 0 0
724 1 1.3304153459243656e+01 1.0018160156598381e+00 6.2541155501213899e+00 1 0 1
784 1 1.8318265265833216e+00 3.6076370776206081e+00 1.8006957951522986e+00 -3 0 -2
967 1 7.4567242214948726e-01 3.1029664016893745e+00 1.0041775643692059e+01 -1 0 1
553 1 1.0385351864420043e+01 4.5887842749993286e+00 1.6538074927378062e+01 -5 0 -2
681 2 7.7877393236322892e+00 3.7617597270273162e+00 1.7178524319662433e+01 -3 0 -3
649 1 8.8715253987638327e+00 1.6772718324649185e+00 6.2484214035424230e+00 -4 0 0
650 2 8.0902768682860504e+00 2.0677560089183742e+00 6.6649193966769946e+00 -4 0 0
51 2 8.7889320514517451e+00 3.1275694601864910e+00 1.0628675063574825e+01 -1 0 0
76 1 -4.7196185121287648e-01 1.0114616717847417e+01 7.9292591448069727e+00 -2 0 -3
945 2 4.6793222293592063e+00 3.9489592161302323e+00 5.0494095781425452e+00 0 0 3
526 1 5.0232343208520431e+00 4.5950112865591475e-03 5.8699976697831957e+00 -2 0 0
939 2 9.2179374689465039e+00 8.5817701024779325e+00 1.4797269121914249e+00 1 0 1
397 1 1.5158536451841011e+01 6.8489544323110518e+00 3.7072556712905134e+00 2 0 0
127 1 1.0989911908884363e+01 5.7685327426868218e+00 2.0233326432654057e+00 -2 0 -1
128 2 1.0532953237979815e+01 5.4483737762165640e+00 2.7913394877699096e+00 -2 0 -1
1407 2 1.5448155117858304e+01 7.5145157121143917e+00 4.3929243302769123e+00 2 0 0
34 1 -1.0943290643325321e-01 -1.0488146781959247e+00 3.1374632433696008e+00 -1 0 0
928 1 1.4713633929693145e+01 4.1834163393156976e+00 5.0436506112242023e+00 0 0 0
777 2 1.1139665243509839e+01 7.9993205752010033e-01 2.3712799041623365e+00 -2 0 2
152 2 5.4165466620252074e+00 1.2719151442968579e+00 2.9554784772850606e+00 3 0 0
439 1 -1.3389223934305061e-01 7.4774482184099060e+00 1.1939507789769252e+01 -2 0 -2
350 2 1.5917555521240466e+01 2.6686306528383201e+00 1.3743010822675281e+00 2 0 4
714 2 -1.0291143318848719e+00 -1.3388231993049859e-01 1.1075147156073108e+01 0 0 3
176 2 4.5951472898567562e+00 -2.7462772896370646e-01 1.3367970083639063e+01 -5 0 1
783 2 -5.3789190526876629e-01 8.6380938419950244e+00 2.4070574961650459e+00 -2 0 -2
539 2 1.9924740596770807e+00 5.1268778990505548e-01 4.2115590942727934e+00 -4 0 -3
994 1 8.7414553257231624e+00 6.9093072901695756e+00 1.1463912493654021e+01 3 0 1
725 2 1.2749236151914255e+01 2.2817356804988442e-01 6.1728309216379129e+00 1 0 1
230 2 3.2507119041574586e+00 2.3948541068864073e+00 8.2821736906534298e+00 0 0 -2
129 2 1.0319066815629657e+01 6.3999021796136404e+00 1.6334739806955718e+00 -2 0 -1
604 1 1.2281483872012451e+01 9.5371039306461780e-01 9.0881280281192800e-01 0 0 2
173 2 9.8583122364952072e+00 1.7741387822663746e+00 1.2613991831982844e+01 -1 0 -2
1664 2 4.6455390461855455e+00 7.2463915962095360e+00 1.6843215276912222e+01 -3 1 -1
738 2 1.2247239544956157e+01 7.0205436570328068e+00 2.6539600586792540e+00 -1 0 1
538 1 2.7570857012328949e+00 3.3382030845918442e-01 3.6255649563370005e+00 -4 0 -3
462 2 8.5696279469232994e+00 4.5239894639023763e+00 9.1699068508721808e+00 -4 0 -2
651 2 8.8560854086344083e+00 1.8950038637045510e+00 5.2592336779419071e+00 -5 0 0
996 2 9.4241539901169133e+00 6.9497536730006200e+00 1.0760057523603498e+01 3 0 1
611 2 1.3482683884529655e+01 7.7959947530190998e-01 1.1400131970666022e+01 -1 0 2
144 2 9.1131536501435484e-01 9.3651073115400880e+00 1.8674248041200933e+01 2 0 -1
750 2 5.7985394488859932e+00 8.7407372818698690e+00 1.0400689802387825e+01 -3 0 1
749 2 6.1964773788563177e+00 9.0034591937229855e+00 1.1781112284199690e+01 -3 0 1
102 2 3.1786531333749175e+00 6.6577909618702140e+00 1.0778167505425207e+01 -1 0 -1
497 2 6.0764140382003458e+00 2.6127595177452494e+00 8.0313177592507667e+00 0 0 1
498 2 5.9695702800384431e+00 3.3511445713846637e+00 6.6579949509200569e+00 0 0 1
395 2 8.7291954779555443e+00 2.7191684119556330e+00 2.7456819111699544e+00 -3 0 -3
685 1 2.4277803898985435e+00 -2.4223513389949813e-01 1.0139594177831983e+01 -3 0 1
349 1 1.5153728582508071e+01 3.2220569385592031e+00 1.1337557496261819e+00 2 0 4
679 1 8.3583706834997287e+00 2.9655615601312331e+00 1.7179222205534348e+01 -3 0 -3
398 2 1.5071343580853103e+01 5.9913221416378502e+00 4.1303953362984380e+00 2 0 0
405 2 2.0080731240597345e+00 -1.0382748862373998e+00 6.7328022170967889e+00 3 0 1
925 1 -3.7092649937473698e+00 -1.0698905011647604e+00 1.2913096816948670e+01 2 0 2
321 2 1.0813679455525275e+01 9.5928106356727882e-01 1.4570846113109635e+01 -4 0 -3
943 1 4.9396591256408087e+00 4.2809066847653172e+00 5.9523252797530377e+00 0 0 3
231 2 2.5625930055027322e+00 1.0605414757034763e+00 8.6421599427565106e+00 0 0 -2
268 1 -2.2347677487670552e+00 1.0327460724668040e+01 1.1986161016550618e+01 2 0 -2
220 1 -5.0087792836707310e+00 7.7486649324670456e+00 1.6398439622394793e+01 -2 0 -3
172 1 9.7582317762343038e+00 2.2840322793837151e+00 1.3433630581717095e+01 -1 0 -2
298 1 -4.6619263787737912e+00 8.7168635173587816e-01 1.7329926703152442e+01 -2 0 -2
680 2 8.0711792809956240e+00 2.4229108545519420e+00 1.6386311903522476e+01 -3 0 -3
250 1 6.5679485874750156e+00 8.9291119855436243e+00 8.8114434931462000e+00 -3 0 2
761 2 1.6910559989956164e+00 1.2094265690334449e-03 1.8859342675935416e+01 -3 0 1
944 2 5.1335390962376337e+00 5.2629434248364966e+00 5.8979164606562815e+00 0 0 3
100 1 3.4930769936711026e+00 5.9448594056425588e+00 1.1346645117572240e+01 -1 0 -1
1667 2 6.5040171080493359e+00 4.6505524846052673e+00 1.2458571826615056e+01 -1 1 -2
352 1 8.0205088264943996e+00 7.1971964727732409e+00 7.1978179877110744e+00 -1 0 0
174 2 9.9057246875257068e+00 3.1949795996029708e+00 1.3200397369155560e+01 -1 0 -2
388 1 1.5167730171048021e+01 -3.6087813916681266e-01 4.5279996614212390e+00 -1 0 0
547 1 7.0482647270163206e+00 8.2077060784219391e+00 1.5183261073588627e+01 -3 0 -4
981 2 1.0403331819491484e+01 1.0157263829529152e+01 9.4959184472932101e+00 -2 0 0
460 1 7.7951649265381953e+00 4.9918536377695064e+00 8.7894487980492908e+00 -4 0 -2
607 1 4.7968282068501429e+00 1.6068496781587895e+00 1.3738961577586770e+00 -3 0 0
776 2 1.0065806341234016e+01 2.6669824419878818e-01 3.3214133919918591e+00 -2 0 2
186 2 -7.8798258812967159e-01 3.6018603623423173e-01 1.7989342420387914e+01 -4 0 -6
297 2 1.5712454523870271e+01 8.6501226384096572e+00 6.2376608348021163e+00 1 0 3
595 1 1.5221063835302386e+00 5.9724830733462211e+00 5.2368515698152489e+00 3 0 -2
528 2 5.3973309441278410e+00 7.1585510588071632e-01 6.4093044746969747e+00 -2 0 -1
109 1 9.3573110495812273e+00 2.7671873570776233e+00 9.5748996634965422e-01 1 0 -3
615 2 -4.4688430922863454e-01 3.9450611485085227e+00 1.7926027971965503e+01 -2 0 -1
548 2 7.1158265600635184e+00 8.5900847023815583e+00 1.4297850706266130e+01 -3 0 -4
461 2 7.2869552521933443e+00 4.2805094425083903e+00 8.3430585918783819e+00 -4 0 -2
599 2 -1.4216572434384152e+00 9.3081990717306518e-01 9.1406062006132522e+00 -3 0 1
408 2 1.3812304431362525e+00 2.4999627892175065e+00 1.2986859278872865e+01 -2 0 -2
20 2 6.7349274460112021e+00 5.2601944403560097e+00 3.2883890771706423e+00 -3 0 -3
182 2 1.3091341143684552e+01 4.0249190177274956e+00 7.5527628300477039e+00 -1 0 0
35 2 -5.1460800060947498e-01 -2.6919602790038133e-01 3.4962381943851408e+00 -1 0 0
216 2 -2.7379361335272865e+00 8.3612380693385422e+00 9.0044885886277282e+00 0 0 -2
991 1 1.4287375116479144e+01 -5.3756670884826663e-01 1.0174130350566195e+01 1 0 1
475 1 7.4454545209705829e+00 2.1800610755360177e+00 1.1600844182697536e+01 -1 0 2
68 2 9.9453893004724847e+00 7.2603954190540474e+00 1.4843199206907695e+01 -4 0 -3
320 2 1.0642598819850839e+01 -5.7544037221912592e-01 1.4319562982485264e+01 -4 0 -3
133 1 -2.7531261991349969e+00 1.5011677557710588e+00 8.5587119563332728e+00 1 0 -1
610 1 1.3399918373761604e+01 1.4783849297059013e+00 1.2120838089022081e+01 -1 0 2
164 2 1.0700077339473367e+01 8.2425541290408599e+00 9.1673944788097401e+00 2 0 1
82 1 1.2806944349119014e+01 9.9513189884408266e+00 7.4278076616509709e+00 -1 0 -2
300 2 -4.1494035228636053e+00 6.2274324186217478e-01 1.8131970970851071e+01 -2 0 -2
47 2 6.1477349645563670e+00 9.2308575892388127e+00 4.8163134712155324e+00 -3 0 0
782 2 8.5236432998846468e-01 8.2472026101279070e+00 1.9776864985192086e+00 -2 0 -2
690 2 6.4555645181850840e-01 2.6824064043212115e+00 5.7872574507785748e+00 -2 0 0
561 2 8.5455082254871186e+00 7.4068366599088442e-02 6.5839863571155055e+00 -2 0 1
728 2 8.2180074862918389e+00 8.3746999524197427e+00 1.2377915862070168e+01 0 0 1
113 2 8.4371748536655709e+00 1.7125196404292766e+00 1.4540335986025076e+01 -2 0 -1
513 2 7.7883613908768838e+00 -3.6357346796105960e-01 1.6137621380249840e+01 1 0 0
251 2 7.2646429258393042e+00 8.3756399838823619e+00 8.3885154827715116e+00 -3 0 1
435 2 7.5699809871010837e+00 9.6720374786225634e+00 1.5931687754472659e+01 -2 0 0
276 2 1.5105580377425333e+01 -7.7831125836322446e-01 1.2505912346569015e+00 2 0 0
67 1 9.2079938434618178e+00 6.8779231440828426e+00 1.5338423086946952e+01 -4 0 -3
727 1 7.7806965987416739e+00 9.1461040821587574e+00 1.2723373014236348e+01 0 0 1
114 2 6.9657304771544908e+00 1.1294296447947092e+00 1.4811420883896474e+01 -2 0 -1
425 2 1.3178868025465043e+01 2.1675006394321539e+00 3.6711900768090548e+00 -2 0 1
544 1 5.1530630114977427e+00 8.6912874746114088e-01 1.4768514973886740e+01 2 0 1
875 2 1.1916982044445971e+01 6.8897236139990241e+00 1.0705517143613855e+01 -3 0 1
1001 2 8.9269771472555401e+00 4.5404625384264250e+00 4.0723619370974466e+00 -1 0 1
496 1 6.6332875754089624e+00 2.7569633040010837e+00 7.1946241751719846e+00 0 0 1
655 1 5.0534079812154236e+00 6.6077865719145130e+00 1.6194864538068892e+01 -3 0 -1
337 1 8.0259388924252040e-01 8.5188598900056043e+00 5.1982976919119883e+00 -1 0 -1
760 1 9.0794742783457458e+00 1.3375796392470263e-01 4.6206417777192288e-01 -3 0 2
221 2 -4.7966544472145713e+00 6.8313839248341157e+00 1.6452573987379527e+01 -2 0 -3
993 2 1.3433300304757541e+01 -8.9104589329544648e-01 9.7920727889054326e+00 1 0 1
583 1 -2.6677420290594718e+00 7.7397695450485724e+00 1.0556438929364219e+01 -4 0 -4
584 2 -2.1246730496479147e+00 7.7516496441388050e+00 1.1424978832808911e+01 -4 0 -4
641 2 1.9301465234958233e+00 5.2792770266826743e+00 1.1893639483380850e+01 4 0 -1
110 2 1.0162110965705867e+01 3.2605543751971569e+00 7.9720858893903224e-01 1 0 -3
389 2 1.4426460553255193e+01 -8.5534723331267415e-01 4.2302233424844005e+00 -1 0 0
427 1 -2.5687155768985299e+00 7.8404426262694731e+00 1.3930249768621682e+01 0 0 -1
207 2 3.3478273854081038e+00 4.0191741171198592e+00 1.0826222614582468e+01 3 0 0
808 1 5.8817668391402034e+00 6.5935166656223325e+00 5.9790696046121861e+00 -4 0 -1
963 2 2.1972993610765332e+00 -4.4879550071197727e-01 1.5439648268000838e+01 -3 0 -1
577 1 3.5951399614302213e+00 7.4007361750980110e+00 1.3789047958634363e+01 0 0 0
19 1 7.0222008312150148e+00 6.1000209396575773e+00 3.6151171754417128e+00 -3 0 -3
1000 1 9.7613568453113153e+00 4.9214712583991407e+00 4.3843761400222823e+00 -1 0 1
294 2 -3.0118378238308887e+00 2.7790837801858110e+00 1.2099620903335419e+01 1 0 -3
1994 2 5.6071036096699878e-01 9.4931876700455362e+00 1.6530587787569786e+01 -2 0 -3
962 2 1.0167390855837901e+00 -4.8093665261914498e-01 1.4434248644054367e+01 -3 0 -1
521 2 8.4723954664901591e+00 -7.2342159194763944e-02 8.5929800535606518e+00 -5 0 -2
813 2 1.2126380501734193e+01 3.9792141996286929e+00 1.2538936824784862e+01 -2 0 -1
912 2 1.1095867918425952e+01 2.0608453137362197e+00 4.0181248975163504e+00 -2 0 1
919 1 1.1860296392566960e+01 -6.8340020112864752e-01 9.3441661625668253e+00 0 0 -2
214 1 -2.8525948320815799e+00 8.9327158521787720e+00 8.2597985531775109e+00 0 0 -2
771 2 -2.1480370792077252e+00 5.8950360015516612e+00 1.0283881247489370e+01 1 0 -3
745 1 1.1674807738257520e+01 7.3605486968358793e+00 1.3867380584392532e+01 -3 0 0
809 2 6.3157146691564900e+00 6.5249424065730528e+00 5.1393073746530025e+00 -4 0 -1
866 2 -1.8602288258811495e+00 5.7476083540680287e+00 1.7789376983939579e+01 -3 0 -1
94 1 -7.2141259945363290e-01 3.9932290525534286e+00 5.6761457617939799e+00 -1 0 -1
225 2 -2.0568215836115717e+00 9.4135914437112955e+00 1.8130261502051418e+01 -2 0 -2
770 2 -1.3663401228528651e+00 4.8332824169917350e+00 9.5807045673255633e+00 1 0 -3
123 2 9.1577403400115038e+00 5.7503550904414000e+00 1.2572384189487970e+01 -2 0 -1
440 2 5.3439694673765814e-01 8.0152097231806945e+00 1.2385157142393153e+01 -2 0 -2
383 2 1.5353421513758065e+01 4.9285484082420474e+00 9.9836240104154772e-01 -2 0 1
736 1 1.2808652769078494e+01 7.7571530975762997e+00 2.9079394548811641e+00 -1 0 1
499 1 -4.4509263945043642e-01 2.0017183003116767e+00 1.3107944999103385e+01 1 0 1
910 1 1.1561078187003458e+01 2.9220065664147326e+00 4.3118603128575028e+00 -2 0 1
546 2 4.7651184087755851e+00 6.7687774194584782e-01 1.5621115853768650e+01 2 0 1
505 1 4.3539776110534687e+00 9.0251884787443934e+00 1.7850595233123070e+01 -4 0 -3
729 2 8.4495806229280284e+00 9.8618823757578618e+00 1.3015541199474370e+01 0 0 1
612 2 1.2710138710352130e+01 2.1126487782908741e+00 1.1828504605511036e+01 -1 0 1
572 2 1.1968141215872379e+01 -1.1457300174397047e+00 3.5296162625661212e+00 1 0 4
121 1 9.2412430084595112e+00 5.0638371750439948e+00 1.3318055852216158e+01 -2 0 -1
911 2 1.1730804437129656e+01 2.8515537965193083e+00 5.2532949479887572e+00 -2 0 1
424 1 1.4160143776304897e+01 2.0276436835295435e+00 3.4498381331051036e+00 -2 0 1
811 1 1.1977019076171681e+01 4.1971651294819941e+00 1.1581438459728462e+01 -2 0 -1