LAMMPS data file via write_data, version 8 Apr 2021, timestep = 1759000

1008 atoms
2 atom types

-0.09163454377127131 20.764161201003816 xlo xhi
-0.09163454377127131 20.764161201003816 ylo yhi
-0.09163454377127131 20.764161201003816 zlo zhi
0 0 0 xy xz yz

Masses

1 16
2 2

Atoms # atomic

13 1 12.058976629369768 3.731048125168593 9.027478800935635 3 0 3
162 2 15.003128467238156 1.0199205716646358 0.6390657254363961 2 0 1
85 1 6.751043461663271 9.80159383924968 7.4548178944333765 1 -2 -2
393 2 15.584876694617298 8.451404787846194 1.948247847945632 2 0 1
90 2 3.874833146175181 8.578332940534663 7.617332261278826 0 0 -1
301 1 13.034440081723648 7.576394993451992 8.951047662254926 0 -2 -1
217 1 20.63042305996472 1.6188329144353761 1.3510006955805176 -4 3 -1
360 2 6.0426528849082635 4.035890266622068 2.948650306423616 -1 2 1
637 1 17.84257429323937 4.653311231713688 5.0063326596104325 -1 -1 1
860 2 2.7698698639073984 8.387491767361507 3.065661176060524 2 1 0
82 1 19.795024607814454 4.2532310885771185 1.3832856180080872 -2 -1 1
272 2 15.001096428475075 2.509726717704188 2.440347189437436 0 -1 -1
597 2 17.008837142119518 6.513260837855852 7.428147331994532 -1 0 -1
695 2 7.715845905598043 4.8222843451955635 7.054860112101695 0 -1 1
475 1 17.170921126851105 2.1152165845495845 4.588060537415875 -2 1 -2
282 2 1.8311087800322698 9.210464937024229 6.701445172393543 1 3 0
53 2 20.167376026506904 8.270646451714347 3.430236092989169 1 0 3
44 2 6.648276636142817 7.531515723776201 4.754698113426365 1 0 0
448 1 5.3152097098762106 10.212906736649726 1.7724375173900555 -2 0 1
750 2 15.48380322242459 9.598483924371932 10.246726663738093 1 3 4
867 2 10.267082219333002 6.693062077551182 4.332258790212711 1 2 5
273 2 15.20758609212949 0.8683974263325077 2.909370489678352 0 -1 -1
903 2 20.64185497390917 4.038221649739069 4.476509443844121 -3 1 1
373 1 20.312773042859426 1.6463744546640955 5.821667712191369 1 4 1
164 2 8.973097010320345 1.0587417171130773 4.501901890446364 -1 0 0
66 2 8.429512764234376 3.0637171455764274 1.243242234207138 1 3 0
470 2 18.69014948462859 7.5686740020715355 8.624775336018232 -2 0 -3
281 2 2.378385464326093 8.237241892703373 5.50162488428308 1 3 0
153 2 19.76973055644531 3.0827865202408007 8.362115696845184 1 1 2
163 1 8.454840556719015 0.38818315940301806 3.9822786856580876 -1 0 0
828 2 14.61981090137377 4.3545394362400485 0.5794666814642132 0 -1 1
45 2 5.353280167731039 8.321296800315235 5.139007036140668 1 0 0
319 1 3.0835498084527257 9.180889683836599 1.622425765174709 1 0 3
88 1 4.527469368454864 8.349460493587632 8.280539146018718 0 0 -1
267 2 4.771277189769587 3.5173555283295532 6.673356787140093 1 1 1
181 1 4.204710042637807 5.64993616607504 4.55214317125202 0 0 1
543 2 15.117625743736399 4.529618560275769 2.839118236386008 -3 0 -1
822 2 11.187347843596502 8.185723894839784 2.8413317892323042 -2 -2 0
861 2 3.051185070211747 6.967229274890824 3.74799792352553 2 1 0
86 2 7.21919235383584 9.83391257539784 6.630993972482649 1 -2 -2
739 1 13.90081451478867 5.420057182578458 3.8067044831964254 -1 0 1
336 2 3.42633824515334 4.956539864906122 5.835754426130164 2 3 -1
790 1 13.982945405390026 10.01709269191807 9.653613384895985 0 0 2
558 2 4.891820863452827 5.524678250158482 0.2953560001270432 2 0 3
286 1 17.632924105464678 6.011117927790141 2.5524417316835732 2 3 0
556 1 5.0405465817304025 4.5272487928553895 0.24344139370907622 2 0 3
287 2 17.704053382308388 5.774082766727071 3.545114579593685 2 3 0
390 2 5.721656064055745 4.602561174940624 9.216868538965894 1 2 0
237 2 6.583315496951106 6.858329953574593 6.969747257331029 -2 2 -3
616 1 8.402722170678352 1.4481239082184811 8.009266293569153 0 -1 2
893 2 4.8246834732147414 0.9703935302323343 1.8535546532675624 -1 1 -1
477 2 16.20913642880785 2.2293517550809967 4.554795559804667 -2 1 -2
741 2 13.71634989023206 5.921876938571592 4.66163468819653 -1 0 1
149 2 17.53031312896645 2.578431173307068 8.099933756465708 1 0 -1
859 1 2.4589841555468914 7.77251836000579 3.7928984626746116 2 1 0
742 1 5.670159126691611 0.23204475256501664 8.815351571695052 0 0 -2
142 1 3.4854278137281556 -0.03758537327813562 7.050478532961426 0 -1 -2
141 2 15.017192962642035 0.20137122158559093 8.349565457381498 0 -3 -1
819 2 18.396558597715806 9.027933091557129 4.778993671739031 -3 1 1
321 2 2.241445866265763 9.503369133995545 1.2703031201668726 0 0 3
696 2 8.25156166134928 3.488570108095748 7.246355537092495 0 -1 1
896 2 10.347110545137959 9.628129865463373 7.388970517102528 -1 0 0
320 2 3.9123845872628817 9.717262183250172 1.4478714047070285 1 0 3
770 2 17.14448190524745 0.5514420684058317 6.74067889364463 3 0 0
545 2 19.31626430898889 5.379530445961986 5.2859083135935325 -2 -2 1
850 1 4.522321195943168 7.3012440943456 0.4080321183528989 0 1 1
608 2 14.551261396636498 2.9153111913243652 6.179766821095786 0 -3 1
265 1 5.327034242492316 2.746058786807049 6.92422270912092 1 1 0
858 2 20.761084406114378 3.2989290996956746 10.169925105514723 -1 0 -1
106 1 14.68907988422643 3.26682813400832 7.831740267947497 2 1 3
912 2 7.691879673643981 7.340445514218043 0.6030180702505997 0 0 1
808 1 13.933177074940563 7.810521225861842 2.345384696332211 0 1 3
821 2 11.824744559859191 9.616711680370923 3.344016962789855 -2 -2 0
836 2 0.2353520154840543 6.1704114080966574 7.126149846926217 1 -1 0
887 2 11.523140311796482 3.0750125121628473 3.725557246540427 -1 -2 -1
89 2 4.228980889440685 8.814317818082067 9.08439142105532 0 0 -1
810 2 13.701975828911369 6.993664909491922 2.7442199305888573 0 1 3
617 2 7.499565691304191 1.0795118561379364 8.155935637931384 0 -1 2
295 1 7.329438615362468 7.260146023389998 10.140732971234165 0 1 0
578 2 8.62169556126836 1.0763038461573624 0.8361718387526551 0 0 1
560 2 10.721569332710866 1.5135063267455693 5.9748717395385595 3 1 1
811 1 5.808142584828259 0.27773885292489076 0.022142710426605445 1 -2 3
84 2 19.26674781980321 5.018471915457934 1.3266087334385361 -2 -1 1
1006 1 7.916619963107348 9.838951645569356 10.00012613575929 0 -1 1
857 2 0.9661385210592439 2.7881394851745798 9.164245738994294 0 0 -1
856 1 0.0722037007663405 2.580353375061142 9.444235283962437 0 0 -1
835 1 0.9582288325985491 6.33906389578367 7.743067330075688 1 -1 0
886 1 11.55362580371638 3.98524280954276 3.9951881345589797 -1 -2 -1
780 2 13.146252434520727 1.3955760246420674 2.7593749316581664 1 2 -1
231 2 -0.0806261581513056 9.160562475843577 1.1117439960709639 2 1 0
817 1 17.727501116654203 8.740341652202467 5.43914274289585 -3 1 1
753 2 10.3528193462356 6.110002123981084 6.2787508673513255 -3 -1 2
453 2 11.708619324446369 4.311634455191376 7.379405817741337 -4 0 -1
32 2 15.918683826628428 9.360684570767098 5.602295301631957 -2 2 -1
451 1 11.486867311342271 4.8439173466264975 6.645951402232846 -4 0 -1
471 2 17.993737818289908 8.829532772595128 7.96205413197574 -3 0 -3
87 2 5.966368020396339 9.197226505975385 7.312579447568755 1 -2 -2
965 2 18.772224127253587 9.194706022718114 2.039817946794696 1 1 4
561 2 9.261944754026196 1.6583196968107883 6.576838689415355 3 1 2
219 2 20.64196267423355 2.568960648681968 1.2781927597278535 -4 3 -1
15 2 12.007196233742452 4.297521373994029 9.817199158466682 3 0 4
740 2 13.085299344203943 4.863701627406012 3.680160799036017 -1 0 1
107 2 13.846644797573399 3.270439328197543 8.301598370789462 2 2 3
108 2 15.369565828235201 2.7234924505566886 8.291910731250464 2 1 3
315 2 8.49855054530653 3.8641127996211364 3.0896479033200563 1 2 1
450 2 5.998088177491401 9.534644144795507 1.591234148941549 -2 0 1
151 1 19.184038609077504 3.2167710936654696 7.608854008742262 2 1 2
426 2 17.9017433873454 0.47302486745557837 1.9421521301559788 0 1 2
866 2 10.603358954519324 5.9533709562150445 3.094387914601588 2 2 5
229 1 0.6119495656520564 9.900035763664242 0.8014275995975829 2 1 0
52 1 20.57431743502436 8.163266011867135 4.297712917692227 1 0 3
51 2 8.877469472697546 5.284241600786031 0.6659876772899086 -4 0 0
694 1 7.8014850729834295 3.957456694223914 6.586542595192261 0 -1 1
813 2 6.626293834572671 0.6957130156879144 0.23839897100187754 1 -2 3
966 2 19.054680658969872 7.838086161605557 1.2090280386010848 1 1 4
143 2 3.081637919391861 0.7071513803946038 6.516880248124143 0 -1 -2
472 1 8.269528830062242 9.828893839190417 5.1818980311286635 1 0 0
837 2 1.3589366465505068 7.201943402527892 7.362247009011738 1 -1 0
820 1 11.589037080118429 9.041983015796326 2.5532361160971573 -2 -2 0
280 1 2.2379188041912483 8.379230121384081 6.463338559476261 1 3 0
54 2 0.6360518229106689 7.830720994253907 4.1219759653341805 2 0 3
297 2 7.67501226738771 8.197481885131461 10.06676559482312 0 1 0
826 1 13.845952703666804 4.368115790397149 0.03777619256950937 0 -1 1
389 2 6.100753783116177 2.9733619821082824 9.050035829036704 1 2 0
221 2 17.567530703621223 2.187304054053674 0.7689221165978435 -2 3 1
778 1 12.179786082952022 1.5070185317462097 2.9814417964845834 1 2 -1
314 2 8.08444611532808 4.245553494979783 4.64133525487691 1 2 1
744 2 4.883377787230575 0.2938990210560364 8.275151728755837 0 0 -2
192 2 20.725825136082186 6.572561016901723 8.993778304072102 0 -1 -1
65 2 9.925902080708964 3.305367573560671 1.2757442683072528 1 3 0
569 2 2.740241543741096 1.038389791245486 2.75622177644148 1 -2 1
901 1 20.46857569684296 3.37156038955739 3.778286536518173 -3 1 1
738 2 1.9942856584069883 1.9116299278074191 4.8165204729158875 1 -1 -3
894 2 4.620608562580023 2.3905119544161018 2.5713840739878497 -1 1 -1
249 2 5.6406634532346285 1.84904050776892 5.749080996545537 1 1 0
200 2 10.16149732239967 10.181554229062629 0.00229551815285642 0 0 2
218 2 0.5694450007990547 1.3964845054286212 1.9128145042615918 -3 3 -1
618 2 8.721010885751086 1.7248542738570838 8.854796722424757 0 -1 2
150 2 16.98280829671042 1.5849487172274348 9.085047394498746 1 0 -1
31 1 15.150961573303112 10.023430237500522 5.609572675268751 -2 2 -1
335 2 2.204941024350858 5.136320235987344 6.849071880816959 2 3 -1
83 2 20.04932693666194 4.05741733484099 2.3479361313815037 -2 -1 1
595 1 16.487459018173418 5.732702285934002 7.0719150716162895 -1 0 -1
403 1 11.723318754205598 2.696412237699609 0.6901425203477862 -4 1 2
25 1 12.314993765062203 9.763415755501459 5.1613497356141815 2 1 0
579 2 8.108985071342666 0.9289842934028942 2.288762037732655 0 0 1
14 2 11.436789626175402 3.01747665363702 9.225618140096982 3 0 3
892 1 4.398701276331988 1.4136173752455499 2.7337701164699872 -1 1 -1
737 2 2.5186084921043435 2.683025342942226 6.046681941530431 1 -1 -3
526 1 15.147265749896068 0.6688256552848421 10.089609817685494 -1 1 1
247 1 5.923770604853277 1.1190698295733787 5.060697615962202 1 1 0
115 1 9.153113728242026 3.669912020907242 9.389125590162351 -1 -4 0
4 1 4.6259640791232775 5.744894782508253 8.679952589012228 0 0 0
876 2 13.294140504618463 6.783874581008481 7.350900161110528 1 2 4
476 2 17.586647723589603 1.9048974167941906 3.7236985976159676 -2 1 -2
452 2 12.340379020837998 5.427740959963328 6.44622218348345 -4 0 -1
183 2 4.933654689891772 6.277763783465163 4.782982788812047 0 0 2
64 1 9.066943153016872 3.808373790940437 1.4063495599156093 1 3 0
538 1 7.846591307680548 7.782503265271217 3.3825411979569604 3 1 2
250 1 12.087687313973866 0.2641744015974732 6.823778408112974 3 1 2
34 1 3.0206475559115336 2.162496937866342 9.508125026912454 -2 3 0
544 1 20.27419417991045 5.567767363899136 5.5516326223161085 -2 -2 1
639 2 17.213256595387943 5.003636781088448 5.737540917074657 -2 -1 1
888 2 11.328254931800704 3.9952472527786598 4.95729020641993 -1 -2 -1
895 1 10.09816846739809 9.034318817310202 6.679927362545287 -1 0 1
165 2 7.554793623378152 0.5396501302564758 4.301091696441377 -1 0 0
638 2 17.61642841725908 3.669287515604682 4.867292683531087 -1 -1 1
224 2 4.865829634289192 10.113554078514726 3.8392220754593285 0 1 0
313 1 7.820047675297789 4.257256771733246 3.736399877412278 1 2 1
35 2 2.9869981836338604 3.1256047075022746 9.807793176185704 -2 3 0
43 1 5.856742607736716 7.4918260154947625 5.335101707613874 1 0 0
182 2 4.5552038662616825 5.042126246181449 3.8426515079333945 0 0 1
236 2 8.232837904972108 6.706733976072841 7.2776086060972744 -2 2 -3
911 2 6.146340509036378 7.735590437298426 0.7049481580583402 0 0 1
303 2 13.816733769613226 7.057374600521513 9.18586107383276 -1 -2 -1
424 1 18.169879425000843 1.3723427041172536 2.1893062792388274 0 1 2
559 1 9.82891184597167 1.8560238894303496 5.745693916281318 3 1 2
607 1 14.593245331808491 2.6531311626664627 5.1866331803670285 0 -3 1
596 2 16.059528649430014 5.354562955182683 7.862986398746045 -1 0 -1
223 1 4.967438114167033 9.852226218484825 4.77048335697843 0 1 0
865 1 10.401123836483485 6.850895260005846 3.374792194847793 1 2 5
551 2 17.008611785680404 10.193959144218068 0.875354665040985 -4 0 1
910 1 7.031792875693548 8.08127081837286 0.7973695644286636 0 0 1
417 2 0.6645543609998588 0.9873395021384419 0.012510101524234289 3 1 0
271 1 14.700527031343322 1.5237050692893621 2.4089157026206913 0 -1 -1
915 2 18.90299798043848 10.31737624877158 6.252286116942355 0 1 1
252 2 12.95413165381316 0.49841535819586 7.211441292081104 3 1 2
609 2 13.744859228069348 2.895879820947829 4.887396239315931 0 -3 1
818 2 18.167184252239313 7.982804996932605 5.954906633418721 -3 1 1
302 2 13.353945272295118 8.46239205502801 9.106880320209699 0 -2 -1
266 2 6.227695520264631 3.1675534082869365 6.810446206169738 1 1 0
334 1 3.027539256505607 4.673918702582893 6.69845433535593 2 3 -1
541 1 15.698731563406643 4.127792561307325 2.1802344798726865 -3 0 -1
392 2 16.299057921598852 7.960147437922795 0.6494335123446461 2 0 1
914 2 20.223555411664723 9.725344470688476 5.690371709602433 0 1 1
152 2 19.082647063192088 4.1382471247681 7.265627190509695 2 1 2
708 2 14.40060564697466 5.140121008221828 9.510445358122997 -1 0 0
779 2 11.770674529177668 0.6090151402585301 2.994546583230588 1 2 -1
6 2 3.894966006739743 5.413151112655732 8.080741642478307 0 0 0
568 1 1.7646285953697867 0.8637632358370476 2.9868119367203287 1 -2 1
296 2 7.365518112060246 7.0312473230077615 9.194582582131108 0 1 0
391 1 16.457865105381995 8.254237376030488 1.5825640063662765 2 0 1
359 2 5.134519827111781 4.274943338007535 1.7784503821986595 -1 2 1
5 2 4.693047845058551 6.712452636110517 8.521678360900241 0 0 0
852 2 3.900399596884191 7.723793416201383 0.9985297842398693 0 1 1
875 2 14.511888322828218 6.004659195099875 6.598517761415112 1 2 3
902 2 20.38179280840753 2.5370987756572188 4.315054680010063 -3 1 1
469 1 18.1266054185245 7.858723248404688 7.921358301543775 -2 0 -3
706 1 14.950065287604682 5.907032042048764 9.593909124372077 -1 0 0
809 2 13.088598951949349 8.329539368758551 2.297761359790697 0 1 3
751 1 9.595034094632174 6.620443735700583 6.0122352993194745 -3 -1 2
546 2 20.48048714247913 6.3984400835372 5.110304159792122 -2 -2 1
190 1 19.960956550548673 6.777709972471253 9.593852087424073 0 -1 -1
33 2 14.400107470249791 9.43633881376173 5.370814255091187 -2 2 -1
248 2 5.340480309701723 1.2593456817848463 4.311785931051649 1 1 0
235 1 7.281086104885038 6.513040648180222 7.595199971504673 -2 2 -3
36 2 3.497923320188483 2.1792206407771473 8.673818153031775 -2 3 0
288 2 17.095851746914835 6.823092025175931 2.4124574787428448 2 3 0
358 1 5.096193567577671 3.962232944755415 2.718943852206104 -1 2 1
425 2 19.116052151401277 1.3782645398074702 1.8912474163044741 0 1 2
874 1 13.594164928867963 6.347028890348039 6.465938200721892 1 2 4
736 1 2.027690745344865 1.8427913365238406 5.811426769853727 1 -1 -3
540 2 8.624899436822325 7.2167689956695975 3.4082207618728906 3 1 2
539 2 7.538648769677231 7.913446179133609 2.480279252113783 3 1 1
473 2 8.098978794865996 9.156842412109892 4.443293439214491 1 0 0
405 2 11.851664693217899 2.276361211035158 1.5487946652771372 -4 1 2
148 1 16.834765372991214 1.9558085755987265 8.175621671404528 1 0 -1
482 2 19.41513997175029 0.34465267478962336 5.027166198337076 0 0 -1
846 2 10.824098710762582 0.6801022632636234 9.51808546923658 0 0 1
964 1 19.48351727450227 8.495079065561342 1.8655540547920149 1 1 4
752 2 9.874785114206302 7.514519651738609 6.394378321994236 -3 -1 2
27 2 11.791502436593154 9.226105787813404 5.737280284289927 2 1 0
577 1 7.870969866118511 1.3744179971854629 1.4622468192974034 0 0 1
542 2 16.476175865571854 4.696769860236031 2.179884963201802 -3 0 -1
104 2 13.710020474408436 7.238139211194891 0.7889195222653269 -1 0 -1
404 2 12.559206565583839 3.0679981848356705 0.4372605463032787 -4 1 2
375 2 0.4147220834740909 1.7367584075741576 5.935441764726408 2 4 1
191 2 20.264911199421487 7.572456547605362 10.076732410110363 0 -1 -1
388 1 6.270260298682814 3.800083828625915 9.588528529658037 1 2 0
516 2 18.287036489183564 6.02360122182744 9.991218837828349 0 2 1
434 2 3.508926620461739 5.23836989357293 9.856843783419883 -1 1 -1
374 2 19.836138196645674 2.269389464240019 6.462027196602282 1 4 1
1007 2 7.518608713534206 9.858956305378141 9.112376716569061 0 -1 1
897 2 9.279684686379918 9.411543321137641 6.187747874544688 -1 0 1
103 1 13.266672976234647 6.941188862099011 -0.03545390408311536 -1 0 -1
49 1 8.595951960969593 6.128009673463713 0.18945250352775647 -4 0 0
707 2 15.835684341280782 5.7057900205686565 9.997701856218859 -1 0 -1
116 2 9.658303692880244 4.281576084409843 9.88381561272669 -1 -4 0
844 1 10.883474510361593 1.464937486917361 10.091580971796144 0 0 1
201 2 11.351315640109078 9.796100522846247 1.0363347928779203 0 0 2
117 2 8.177176537330755 3.6808944850286442 9.624195213388843 -1 -4 0
669 2 0.6231143640145124 0.9405617254015761 10.140654914896185 0 2 0
514 1 17.472191425949458 5.601853015808071 10.279506585552157 0 2 1
827 2 13.40080977274462 5.229203976157377 0.2798380988663859 0 -1 1
749 2 16.64425543026313 8.53121436196319 9.956900338155414 1 3 4
748 1 16.447079549041153 9.400052791081634 10.330552617466195 1 3 4
954 2 0.9508071561910234 8.195863317911924 11.243559797751098 0 2 1
508 1 13.088970664695761 8.1632423067837 15.482580201813013 3 1 3
709 1 9.100638072132309 1.4852515478362631 12.064069984162646 -1 1 -1
718 1 5.215865045160251 6.627720186953968 17.491906022794883 0 1 -3
666 2 2.2334663731623046 6.57046595860745 14.962870553457757 1 -1 0
700 1 18.64122997312253 1.27583884574893 16.49921386241978 -3 2 0
20 2 10.983043052948565 5.120621744367438 18.470719038652504 -3 1 -2
999 2 0.616039156060621 8.639233170480775 15.256501494766466 -1 1 1
702 2 18.030585179849275 0.5372140760693344 16.844192922469738 -3 2 0
401 2 20.694747570057885 6.7591647470410585 15.530824119940101 -2 4 -4
665 2 2.243846232634033 5.234461804865257 14.080621695678534 1 -1 0
55 1 17.946232301964912 7.793570558483241 16.699441227004368 -4 0 0
400 1 20.170367273076284 6.497198712920097 16.311228452679618 -2 4 -4
527 2 14.314946048627776 0.6056645784134037 10.550586058331088 -1 2 1
650 2 16.895938509477624 5.3002346040518225 13.532751213281717 1 2 1
114 2 2.974225383530628 8.54530638512134 18.786330748248016 0 0 0
840 2 20.003465157807003 4.971315021703325 15.913476427839468 4 1 0
581 2 5.432320479760219 8.628633322593945 13.193073473197096 -1 0 0
361 1 0.4658777456329882 6.596159458470382 18.81932871476797 0 1 -1
803 2 14.222519064787246 0.3457378852666261 16.032754952814873 -2 2 -3
998 2 -0.06128277496643038 8.000401240305873 13.990922124729193 -1 1 1
76 1 18.503936479775064 2.9959263270992076 12.26944333770969 -1 -2 -1
347 2 3.384150026965938 9.592718914677999 13.332459034860744 -2 2 1
984 2 16.48810919662956 6.1176250978595474 20.024471386694422 2 3 -1
402 2 19.324999626532417 7.011207904859223 16.36848745116486 -2 3 -4
478 1 15.87817777035513 2.8635606174044432 11.242912455444262 -1 1 -2
42 2 5.303706701286432 0.0762404152536082 15.578803486174003 -1 0 1
684 2 7.29712976643704 3.5578205299391987 14.38209826280206 -1 2 -1
206 2 8.88313483248487 4.448163657825068 13.049871616670819 -1 -1 0
855 2 11.64934831051831 6.076714709287833 10.918070121458719 -1 -1 1
754 1 5.778692809924349 9.417080365689007 17.061795021087107 -1 0 3
214 1 7.997693195830036 7.59049858618908 14.065305618572754 1 -1 -1
480 2 15.38251218400817 3.0008688898530225 12.0604483013824 -1 1 -2
853 1 11.482763014812328 5.165294523467511 11.162782273219694 -1 -1 1
841 1 5.434036986558777 4.770928747622042 11.931145177214923 -1 0 -2
905 2 3.218479004025563 2.408310177534885 14.927161089888706 0 1 -2
446 2 13.055364603050517 8.423613313568264 12.302778126260389 1 -1 2
261 2 10.690551154489542 1.3501439116319616 20.63675446479393 0 0 -3
766 1 10.713562024710372 6.527691699371828 19.53608956820935 1 -1 1
649 1 17.840894600828538 5.542723542739356 13.36977760650244 1 2 1
763 1 4.856052070925782 1.5398559983693125 18.7150276055916 4 0 0
339 2 18.575167744949198 6.243077915220427 20.174320763457747 -3 0 0
342 2 14.695447496895762 1.7875422745511607 14.190891173510286 -2 1 -3
215 2 8.100282215398776 7.12070538691311 13.232882312281705 1 -1 -1
664 1 2.7528650829121055 5.826490192240929 14.679760423654596 1 -1 0
100 1 19.5985070366622 2.2001178057553576 18.793942356953174 -4 -1 -1
604 1 17.051988277238767 3.1096291286786095 15.611963504024038 -1 0 2
213 2 10.843498065617753 4.419600152846254 16.158470587676312 0 1 -2
423 2 20.743532041952157 4.352750143749188 20.635189431399482 0 -1 1
885 2 3.1841375939438556 7.294103186217216 11.55511591650248 -1 1 2
112 1 3.0505256118573825 7.582426013166448 18.894310148659624 0 0 0
815 2 13.370107333142764 1.567665104791722 12.274494155890256 0 -1 0
804 2 15.758368351435472 0.4550917945412738 16.321049352182392 -2 2 -3
605 2 16.147966029284795 2.989123257967163 15.389558357659233 -1 0 2
212 2 10.023606510809934 4.132450742617684 14.762031605924744 0 1 -2
880 1 1.7289347089157634 0.3598092205892033 15.34462832357812 -2 0 -2
411 2 15.26203242651487 7.079983181699135 13.450743497734843 1 0 -2
755 2 5.678987024799544 8.468181937597063 17.36969525576099 -1 0 3
311 2 2.446663203498196 3.4385887595292455 16.781951368201124 0 0 -1
667 1 1.0054132687050936 0.23348680728323987 10.637932435787022 0 2 0
362 2 0.2735429784699972 5.697850579800771 19.06075654079569 1 1 -1
186 2 9.755031714050999 5.850852263333028 11.65614763492659 4 1 0
746 2 17.75594784436627 8.739632923227097 15.55825416744305 0 -1 0
67 1 14.176504743381173 4.45062317506054 18.23582077291072 -3 -1 1
645 2 9.060568128638856 1.9780206094810688 19.176421346036435 2 0 1
194 2 4.666403488013675 6.088880066032778 14.622592531797363 1 1 0
723 2 14.217902763563448 1.536830456442865 17.412361057796026 -1 1 -2
41 2 4.505772174112336 0.48221136970774403 16.80725589595566 -1 0 1
873 2 17.86400089774864 9.6287247639811 19.734288887270964 -2 1 1
422 2 20.45370495176727 3.411201951327878 19.416679094638898 0 -1 1
557 2 4.279978738763353 4.279521091844594 20.4979373824827 2 0 2
802 1 14.985612478508633 0.966330359715782 15.912920033279962 -2 2 -3
510 2 12.13596355058691 7.965183301245987 15.594129906428913 3 1 3
588 2 0.8821573490333302 1.9812301379267778 17.848476080673457 -3 1 -1
795 2 11.693563864563819 9.753529297904912 17.721925788335785 2 0 0
346 1 2.5327309616275064 9.824899306224323 12.967180697846182 -2 2 1
839 2 19.139952580352254 3.7103041769867313 15.367289499164745 4 1 0
154 1 3.829896855052302 9.920225635307503 10.436766369975123 0 2 0
260 2 9.936506830155198 0.003609580514158814 20.5269246640029 0 0 -3
467 2 19.03102061063955 6.907059271045032 13.23338744573466 0 2 -2
72 2 13.392658312778103 5.462866073095154 13.926853853033608 0 -3 0
710 2 9.258178481706151 0.6403330663916934 12.519698891963655 -1 1 -1
995 2 15.539679879148954 5.412418787210213 17.422690265412726 -2 0 -2
648 2 1.4407982710857599 0.9286013670273903 13.87851742477969 2 -1 3
432 2 2.170639240272745 3.4679447348800454 19.84401247997525 -3 -1 0
567 2 6.676653619921426 3.3929678539131847 16.58063248737085 -1 -3 0
19 1 11.266159475011525 4.323682033395765 17.993623577023765 -3 1 -2
337 1 19.195787895899137 6.951408733352751 20.491929363765674 -3 0 0
565 1 6.772838771848518 3.16049925475012 17.526287762676187 -1 -3 0
479 2 16.80757178090239 2.961986712584248 11.530280793550945 -1 1 -2
987 2 6.69056791536947 1.0573647596923448 14.312089276754621 0 1 -1
466 1 19.454045837675423 7.78246396972979 13.093384037554213 0 2 -2
757 1 6.779533182840465 5.311111132317184 19.30295408016811 -3 4 -2
767 2 11.52551057167647 6.688350194709581 20.088555435786173 1 -1 1
170 2 8.908704870305582 0.9392599456716308 17.506088748478923 3 3 -1
996 2 16.61345637059883 4.713709235262956 16.500451812144597 -2 0 -2
745 1 17.904938487975603 9.296348124293417 14.743168108460768 0 -1 0
78 2 18.642650995597062 2.211640803485706 12.802355730409335 -1 -2 0
70 1 12.823117469779849 4.667416894373139 13.63061473237443 0 -3 0
447 2 13.551792071366835 8.234902847473126 13.775236607377966 1 -1 2
993 2 0.23882151156702555 4.141822563036921 14.20114440231752 0 2 0
992 2 1.0557729230935629 3.3124984102780326 13.10904289934212 1 2 0
764 2 5.602978483641635 1.9540185815964597 18.256305730985236 4 0 0
113 2 2.129806241693625 7.2265521629805844 18.82064191465158 0 0 0
582 2 5.483653656231695 9.12566463215103 14.683067028848072 -1 0 0
243 2 7.252827297635988 10.099445311504574 17.33607062651443 0 -1 1
155 2 3.1281027771670384 10.099805198965344 11.09581642641165 0 2 0
991 1 0.9184467632527398 4.2493074704936395 13.43204623768688 1 2 0
651 2 18.239007125483564 4.692785512218301 13.187159259558658 1 2 1
184 1 8.856789132839147 5.849411268558972 12.108271810894246 4 1 0
341 2 13.836585464647081 3.2278019319419347 13.873369775301569 -2 1 -3
994 1 16.383920394874618 5.579976116656575 16.97090474421069 -2 0 -2
983 2 16.04717043006431 7.311642761613453 19.199491026354877 2 3 -1
77 2 19.229101322366823 3.362235689385764 11.622450819132585 -1 -2 -1
882 2 2.688177765601416 0.1900499151972064 15.524309798501486 -2 0 -2
340 1 14.376305457317613 2.497389720877043 13.51516598619685 -2 1 -3
554 2 8.366687747780569 9.897300983987211 19.458791983025527 0 -1 -2
960 2 5.661412373092198 1.5583612506009885 11.988516714012897 2 1 2
259 1 9.79838430043584 0.9534037573689522 20.617782000149898 0 0 -3
747 2 18.31078908477122 10.123492383688166 15.045801514295526 0 -1 0
427 1 10.255008538437734 8.332382161349619 17.473418461247558 2 0 -1
60 2 14.279378273382816 8.766230788682014 18.618889774625163 1 1 -1
768 2 10.425125994375316 7.198732804522039 18.881277233922745 1 -1 1
410 2 15.488410754696492 6.7015399977249945 14.967184077731078 1 0 -2
509 2 13.597820046386367 8.20474074579947 16.33871382881201 3 1 3
968 2 7.777068716497408 9.411950246660966 14.17107026159755 1 -2 2
721 1 13.854829785670834 1.5561661283692296 18.329415967083843 -1 1 -2
959 2 7.1952630651830205 1.7125464697325914 12.13707341265066 2 1 1
101 2 20.06015562557592 1.5258302311696716 19.324688227012285 -4 -1 -1
758 2 7.48075023282912 5.604226121451652 19.989975902795717 -3 4 -2
586 1 0.9280875950368308 2.423405676276266 16.981577663730857 -3 1 -1
845 2 11.68731444730415 1.299314271556284 10.634170381679663 0 0 1
312 2 3.2201974994605354 4.6255875339438495 16.258270073947685 0 0 -1
711 2 9.68885626017861 1.4879148052817566 11.235431439575082 -1 1 -1
953 2 20.265895528940888 8.406137280013661 11.580434752379391 -1 2 1
69 2 14.17700572852892 4.545234075782256 19.22055307301387 -3 -1 1
580 1 5.085071585335544 9.314672674719436 13.812771200502564 -1 0 0
838 1 20.010992403645112 4.076715775082204 15.505216700075712 4 1 0
528 2 15.509448267617318 1.5258449085844008 10.472313450857113 -1 1 1
698 2 11.024580740940937 8.728335127231215 11.058163133449579 0 1 0
606 2 17.27964100161814 2.4008283944841238 16.189727661325765 -1 0 2
643 1 9.25353375897235 2.4146377623553286 18.324795535534907 2 0 1
952 1 0.15294680256382862 8.667185269617436 10.936838988701238 0 2 1
682 1 6.351294908385997 3.6110232131861917 14.698648348817756 -1 2 -1
884 2 2.143620850526812 6.3377955299242315 11.146409909450973 -1 1 2
759 2 6.117850972938617 4.8580082487554215 19.86805831558419 -3 4 -2
105 2 14.011792037183763 6.819362658561968 20.204306036145535 -1 0 -2
56 2 18.103455768788535 8.414502252086967 17.446388331086325 -4 0 0
842 2 5.608737140925002 3.9951430057961415 12.484695652814107 -1 0 -2
348 2 1.8864406824752455 9.211315639337498 13.275570944361979 -2 2 1
71 2 12.065975626392486 4.69252895451359 14.279441878486823 0 -3 0
274 1 10.777725893979394 10.251518853964031 13.699782361201034 0 -3 -2
220 1 17.47096043939416 2.518410236282245 20.701395566245008 -2 3 0
159 2 0.04604382712869426 4.771299953416585 11.920409251633782 3 1 -2
777 2 3.698762540793869 1.2866099273406333 12.526547528864748 -1 0 1
587 2 0.04258323685878404 2.870743008380144 16.734869887385372 -3 1 -1
161 2 14.62798759513752 1.5376961590846412 20.010372380558422 2 0 -1
160 1 15.280701416218665 1.069343317680848 20.530045557880438 2 0 -1
129 2 20.186583129963253 9.649282011172758 19.01650594380915 -1 -3 0
310 1 3.31174200456106 3.8332926432655485 16.80392346624578 0 0 -1
775 1 4.011074646108051 0.9324584542338525 11.653726434472205 -1 0 1
797 2 9.611305089427939 7.371545269058448 14.62612254481064 0 0 -1
415 1 1.0689230135171301 0.8293930194735236 19.992662454804293 3 1 -1
185 2 8.397911871705178 6.288915095663369 11.39331308010867 4 1 0
445 1 13.826104077219616 8.53714401764241 12.887311569218907 1 -1 2
216 2 7.068049954592353 7.2757937181086785 14.330714778981887 1 -1 -1
703 1 5.210860189944874 7.394249169916012 11.91335308866044 1 -1 -1
851 2 4.0534261656597215 7.465401122206008 20.377954794964563 0 1 0
157 1 20.349947016848315 4.589854352752861 11.152744842139159 2 1 -2
429 2 9.383173363297894 8.847075832871793 17.52582990679374 2 0 -1
798 2 10.425259074033587 6.247950043207268 15.200471460926694 0 0 -1
729 2 20.33230948702259 1.4843303401851908 13.95311990680256 0 -1 1
58 1 14.735090452432186 8.23879126740071 17.963612128641632 1 1 -1
958 1 6.401314486376418 1.81031853653464 12.60950417636244 2 1 2
207 2 9.095861534442216 2.8102127056317276 12.968406687090225 -1 -1 0
719 2 5.7557006880920465 6.167822345456502 18.16788918213451 0 1 -3
127 1 0.31655203242172003 9.808827463330516 18.885101441795232 0 -3 0
704 2 5.853774223808839 7.297460841134695 11.138972249332845 1 -1 -1
727 1 19.424498955989346 1.1255707812657874 14.099477152917789 0 -1 1
536 2 14.29749937796565 9.976506879645891 13.263182215757336 -1 -3 2