LAMMPS data file via write_data, version 15 Apr 2020, timestep = 6610000

576 atoms
2 atom types

6.2045175996377822e-01 1.7299549240025069e+01 xlo xhi
4.1545075996392100e-01 1.7094548240025180e+01 ylo yhi
7.6545175996390746e-01 1.7444549240025172e+01 zlo zhi

Masses

1 16
2 2

Atoms # atomic

155 2 2.1128488162488934e+00 1.3969570835144969e+00 2.8889227307708234e+00 0 -1 1
228 2 1.9411790522855330e+00 2.7574844815975244e+00 4.8452729061271800e+00 0 2 1
154 1 1.5155637678860923e+00 2.1377796093174832e+00 2.9628779975880244e+00 0 -1 1
156 2 6.9179656516004906e-01 1.7568581521680289e+00 3.3713222011823314e+00 0 -1 1
140 2 3.9399897990808146e+00 3.0216594214745327e+00 1.3120037577754953e+00 1 1 2
405 2 4.2553519312103072e+00 1.0071339906726198e+00 4.2259498291423414e+00 0 1 -1
65 2 6.6706867569944563e+00 2.3990820991322765e+00 3.4148437255105604e+00 0 -1 1
64 1 5.6958418989961794e+00 2.4943764547110758e+00 3.3852501471925054e+00 0 -1 1
66 2 5.4710321957860160e+00 2.8430808948442645e+00 2.4577890454265710e+00 0 -1 1
34 1 8.5294861501700403e+00 2.0706270597984222e+00 3.3921015059127120e+00 -1 2 -1
36 2 8.2239011124121255e+00 1.2808803167981506e+00 3.8792333210345702e+00 -1 2 -1
139 1 4.8181591564973507e+00 3.2827251857048343e+00 9.1362967297654141e-01 1 1 2
60 2 8.9250985905872593e+00 3.5370685316924586e+00 1.0310454390728578e+00 2 1 0
141 2 4.8071409821095292e+00 4.2646248056971183e+00 1.0693467273211761e+00 1 1 2
300 2 3.6186008776196030e+00 7.0382718300029872e+00 1.3883166093914245e+00 0 0 1
435 2 3.8971533844374466e+00 4.9470988630876720e+00 4.3087324503610454e+00 0 3 0
210 2 1.7328159960092866e+00 5.2127504028330893e+00 2.6641260919785430e+00 -2 -1 1
433 1 3.4472852228693536e+00 5.6104680095267145e+00 3.7652968326444873e+00 0 3 0
434 2 4.0038587939957333e+00 6.0154769776563617e+00 3.0851488358378694e+00 0 3 0
410 2 9.9792149270018737e-01 8.2366105878336491e+00 3.4341978264504118e+00 -1 1 1
411 2 2.3551119464254864e+00 8.1280270901536369e+00 2.6225348992291773e+00 -1 1 1
409 1 1.6344600606076582e+00 8.7149732098825243e+00 2.8990113317184520e+00 -1 1 1
298 1 3.8407445054569536e+00 7.5607625719111811e+00 2.2368675012645456e+00 0 0 1
299 2 4.6256476337785211e+00 8.0885218178916727e+00 1.9913754218727071e+00 0 0 1
208 1 9.4581515492730373e-01 5.3769061985966164e+00 2.2325363437547456e+00 -2 -1 1
21 2 1.0403335016584219e+00 8.0694851633294533e+00 1.0659288011183690e+00 1 1 4
537 2 4.2424809250272100e+00 8.2337082711616425e+00 4.2220868857178324e+00 0 -1 0
209 2 1.0600441082557690e+00 4.7254826928829008e+00 1.4556925007786412e+00 -2 -1 1
8 2 6.7416778771367118e+00 4.6740657442077529e+00 3.3235673637460619e+00 1 2 1
7 1 6.9258064832444477e+00 5.3611186773652175e+00 2.6642227628012023e+00 1 2 1
9 2 7.3982665104771979e+00 4.8973131593626409e+00 1.8345247673237810e+00 1 2 1
173 2 7.4097191259371300e+00 6.8840615357275396e+00 3.6689506221818249e+00 -1 -2 1
172 1 7.6528792240649892e+00 7.6079242542423140e+00 4.2036395320812812e+00 -1 -2 1
108 2 7.0030064967582382e+00 8.4349462705886484e+00 1.0137685243143624e+00 -2 1 1
498 2 8.9435770570801552e+00 7.1607375162355238e+00 1.3448995250290965e+00 -2 0 3
549 2 1.1064432286774997e+00 1.0374034208981126e+01 1.9582689839744520e+00 2 2 0
47 2 2.7251266389415143e+00 1.0072364842473595e+01 3.9431427596718369e+00 1 0 1
46 1 3.3050465339862867e+00 1.0809993758708382e+01 4.0456788228767140e+00 1 0 1
69 2 2.9553616341128413e+00 1.2182542841946544e+01 3.4260763790651843e+00 -1 -1 -1
48 2 4.1729038145024226e+00 1.0532529915990287e+01 3.7846677674279738e+00 1 0 1
68 2 2.5377373476296450e+00 1.2854366878028548e+01 2.0598135995151456e+00 -1 -1 -1
341 2 8.9517103247918826e+00 9.0420550935912516e+00 2.3753069794524873e+00 -2 0 -1
107 2 6.4281451323299352e+00 9.1940989603277838e+00 2.2607742052159630e+00 -2 1 1
106 1 6.1811080887825476e+00 8.9860921283268045e+00 1.3558005116582426e+00 -2 1 1
429 2 6.7091742210526739e+00 1.0223085669035978e+01 4.3150979858322405e+00 -1 0 0
89 2 6.2425647075344317e+00 1.2039061339385436e+01 1.5531212062219324e+00 -1 -1 1
427 1 5.8863020814770417e+00 9.9865347590230833e+00 3.9264707271709889e+00 -1 0 0
556 1 8.4512720868849982e+00 1.0669577900068287e+01 4.8601820456755940e+00 1 0 -2
428 2 5.3734462220888846e+00 9.5414457047198233e+00 4.6265020253059630e+00 -1 0 0
90 2 6.2530597929115075e+00 1.0595340584101846e+01 9.9766575946827851e-01 -1 -1 1
67 1 2.9442305984276556e+00 1.2994292870963033e+01 2.9260147982654745e+00 -1 -1 -1
327 2 3.3964809068668389e+00 1.6399951148835733e+01 1.7855029548877848e+00 0 0 1
325 1 3.1023180657935963e+00 1.6619387151831635e+01 2.6968375322611662e+00 0 0 1
326 2 2.6129655901609494e+00 1.5893322394864439e+01 3.1312896299421675e+00 0 0 1
387 2 4.7357843553141450e+00 1.3281771650814260e+01 2.8173158632710797e+00 1 -3 -1
219 2 3.1553732630584483e+00 1.4299524691666347e+01 4.3395488006219525e+00 -2 0 -1
348 2 5.9937741421442796e+00 1.6499341631429054e+01 3.3142266463092933e+00 -2 1 0
347 2 6.1764283063369056e+00 1.6743926068808722e+01 1.8619446724453017e+00 -2 1 0
385 1 5.6628480587662562e+00 1.3488934736420969e+01 2.8448617186440073e+00 1 -3 -1
386 2 5.7083134806361535e+00 1.4422452679318578e+01 2.5090066836889484e+00 1 -3 -1
346 1 6.3747725840872764e+00 1.6050910160054002e+01 2.5327462414927364e+00 -2 1 0
290 2 7.2881749752580385e+00 1.3820473042144004e+01 3.7592559646551926e+00 1 -2 1
414 2 8.2820135628428382e+00 1.5893168616754799e+01 2.7570153936943669e+00 -1 0 1
289 1 7.9036646507384507e+00 1.4330080477091192e+01 4.3446698363650320e+00 1 -2 1
403 1 4.6167826986509564e+00 5.6642628790508509e-01 5.0549569488730786e+00 0 1 -1
320 2 7.2588446243747673e-01 1.4726466709594652e+00 8.8417911593234066e+00 0 0 2
226 1 1.7157581702383093e+00 3.0108051728670060e+00 5.7449519887856049e+00 0 2 1
227 2 1.7618588539007205e+00 4.0195069090076831e+00 5.7711833468093436e+00 0 2 1
455 2 3.4367089737223044e+00 2.8212729978990185e+00 6.8869045476370179e+00 -1 0 1
454 1 3.8270490535700907e+00 2.0135642639668472e+00 7.2333882590698062e+00 -1 0 1
456 2 4.0939746877902827e+00 1.4822063789775368e+00 6.4352434884500216e+00 -1 0 1
203 2 1.4250589483620613e+00 1.1259436221574184e+00 6.6565182253411654e+00 -1 0 0
102 2 5.1311588625183626e+00 3.2471542016584074e+00 5.2971495697305855e+00 2 1 4
100 1 5.0816338991644754e+00 4.2240672864694915e+00 5.6158274091321516e+00 2 1 4
251 2 7.0590285305917844e+00 5.3534979692545093e-01 5.9594200074299604e+00 1 0 0
402 2 7.2215179535488199e+00 2.1367696775079916e+00 7.4825632022440232e+00 -2 -1 0
400 1 6.5560973452194080e+00 1.4477709607338278e+00 7.4037267672443825e+00 -2 -1 0
401 2 5.6676176708567914e+00 1.8428202164536589e+00 7.5129431195273151e+00 -2 -1 0
101 2 5.6890138292549031e+00 4.2649988042004470e+00 6.4314213211142350e+00 2 1 4
185 2 2.0301762746811862e+00 6.0711734503093702e+00 5.0804468996002523e+00 -1 1 -1
152 2 3.5297697989460568e+00 6.0500407503707354e+00 8.6395841025081950e+00 2 -1 1
151 1 2.9376065862074769e+00 5.3300253771406512e+00 8.2726249262196276e+00 2 -1 1
153 2 2.7068795419998528e+00 5.6573292326237290e+00 7.3904475899783657e+00 2 -1 1
184 1 1.4425954900459015e+00 5.7504994630077402e+00 5.7288532972684747e+00 -1 1 -1
535 1 4.0085808452351994e+00 8.1769476883417642e+00 5.1558751839439179e+00 0 -1 0
309 2 1.4531287752712179e+00 8.2131360721747981e+00 7.3381434984619256e+00 4 0 2
186 2 6.3743241800041961e-01 6.3049948310926638e+00 5.5029905822264453e+00 -1 1 -1
536 2 4.6743869602911827e+00 7.6827400051029322e+00 5.6797806279746901e+00 0 -1 0
308 2 2.8888921425984795e+00 8.3399027238161096e+00 6.6009660208571397e+00 4 0 2
307 1 2.3950582457105316e+00 8.4211935754361100e+00 7.4435795939395941e+00 4 0 2
174 2 7.0098043511091612e+00 7.6555646752175361e+00 4.9738659088941883e+00 -1 -2 1
147 2 8.9344047907175135e+00 7.0836396946608691e+00 5.4853196025579258e+00 2 0 -1
222 2 7.2665671263648415e+00 4.8558241801109743e+00 7.9652251114683388e+00 1 2 2
220 1 6.3630052554551648e+00 5.1137932372203707e+00 7.6864574994993067e+00 1 2 2
221 2 5.8778507135394387e+00 5.3631651757951460e+00 8.5508066436262098e+00 1 2 2
179 2 6.3158899221617837e+00 6.5208700858406097e+00 6.9064170569608043e+00 1 3 2
180 2 6.0938376108933312e+00 8.0814357742399228e+00 7.1856435923469011e+00 1 3 2
178 1 6.1986840967647767e+00 7.3997331519333969e+00 6.4894535530341582e+00 1 3 2
486 2 8.4001445205369727e+00 8.7041133870166760e+00 8.4304787339092506e+00 -1 0 0
33 2 2.6457462688259441e+00 9.4773438865633093e+00 8.8707526382973008e+00 0 2 3
103 1 1.0367977830395019e+00 1.1319011387227107e+01 6.3541151397918734e+00 1 -2 3
105 2 1.8957972025663985e+00 1.0890208027107375e+01 6.1915408447373688e+00 1 -2 3
104 2 1.1764267268524797e+00 1.2264785158743429e+01 6.6241886611610408e+00 1 -2 3
576 2 4.6442331812655571e+00 1.2447536172737379e+01 8.1013757586886470e+00 1 0 -1
574 1 4.3482204854268787e+00 1.2305568613384605e+01 9.0403117170527612e+00 1 0 -1
575 2 3.9496477442899125e+00 1.1393810961734566e+01 9.0322467679696405e+00 1 0 -1
484 1 8.8609454427618672e+00 8.9951669689008185e+00 7.6554729010317866e+00 -1 0 0
426 2 8.3448552220252523e+00 1.2693806981042107e+01 7.4351275618684252e+00 1 -2 1
424 1 8.8306509161104305e+00 1.2748825693743616e+01 6.5747904082711566e+00 1 -2 1
43 1 6.3207882345340991e+00 1.0170771282791176e+01 6.9519096085796486e+00 1 -3 0
44 2 6.4552611331387988e+00 1.0476484513236054e+01 7.8592509733718261e+00 1 -3 0
45 2 7.2288221680058298e+00 1.0041640327390828e+01 6.6900952621313454e+00 1 -3 0
122 2 5.2293295324300626e+00 1.2305640817318537e+01 5.5376827925059677e+00 1 2 1
558 2 8.4245511124594774e+00 1.1402507715473636e+01 5.4733840188064713e+00 1 0 -2
77 2 1.5852943482606034e+00 1.4473985051430699e+01 7.7534891121335940e+00 -1 2 -1
6 2 3.2799157621962567e+00 1.5690691658618787e+01 8.8828892014948337e+00 0 0 1
76 1 1.4833329435083802e+00 1.3854418080072703e+01 6.9894974049800869e+00 -1 2 -1
164 2 7.6535766052832677e-01 1.5672707344758230e+01 4.9386026591031476e+00 1 -1 -1
5 2 4.1780140010013662e+00 1.6786758102227214e+01 8.2858753062953632e+00 0 0 1
404 2 4.2114686944239219e+00 1.6364329384821879e+01 5.0942407165462953e+00 0 0 -1
78 2 2.1645122344345618e+00 1.4112675182336378e+01 6.3521218830583699e+00 -1 2 -1
217 1 3.4413594642053917e+00 1.4785547000697017e+01 5.1586935220558621e+00 -2 0 -1
204 2 2.2209077811688309e+00 1.6542157967959206e+01 7.0003757994461671e+00 -1 -1 0
202 1 1.3447188891952184e+00 1.6832746845420537e+01 6.6388356353368421e+00 -1 -1 0
4 1 3.8748233264223608e+00 1.5889250622434307e+01 8.1359099314798549e+00 0 0 1
218 2 4.1283097199429513e+00 1.4157622006186660e+01 5.5557938524422141e+00 -2 0 -1
123 2 5.9388487304173969e+00 1.3329974280687061e+01 6.4361800357426135e+00 1 2 1
252 2 7.8132424472239732e+00 1.5860902412288011e+01 5.2676591373029877e+00 1 -1 0
314 2 5.4141128260088127e+00 1.5126316500459401e+01 7.5278896901655301e+00 -1 -1 1
250 1 7.8314853644921101e+00 1.6813362548549325e+01 5.5892372840672389e+00 1 -1 0
313 1 6.3702503280537242e+00 1.4840158138423313e+01 7.7026031025646899e+00 -1 -1 1
291 2 8.2012810347263780e+00 1.3652007632587662e+01 4.9922405704216999e+00 1 -2 1
315 2 6.6917476753059031e+00 1.5678659823145273e+01 8.0382801603710430e+00 -1 -1 1
121 1 5.0799147247555396e+00 1.3027379237563855e+01 6.0984543785321259e+00 1 2 1
305 2 2.8493100694746860e+00 2.4982454097564273e+00 1.2378895803375874e+01 0 2 0
304 1 2.0134459324163094e+00 2.9447029282893689e+00 1.2553410926688686e+01 0 2 0
214 1 3.9833483788762445e+00 3.2933009267116740e+00 1.0130298351119349e+01 2 -2 0
215 2 4.2101810631167913e+00 2.3286315150043637e+00 1.0029336185978666e+01 2 -2 0
306 2 1.9080470809523435e+00 3.4892921156626580e+00 1.1723426637751544e+01 0 2 0
1 1 3.9572464139965109e+00 1.0860813345368514e+00 1.2641355665388215e+01 1 3 1
522 2 4.5935220474013398e+00 4.4385015143256537e+00 1.1130067998665963e+01 3 3 1
2 2 4.4158213534959838e+00 9.7250335600519566e-01 1.1792798281350521e+01 1 3 1
241 1 9.5929900528988277e-01 4.4743124670442986e+00 1.0270165372637157e+01 2 2 -1
216 2 3.6635457926050270e+00 3.3079913054679828e+00 9.2184283859573171e+00 2 -2 0
321 2 7.8322008807034249e-01 2.9980129121330967e+00 9.3103035042589184e+00 0 0 2
465 2 6.4735321987542358e+00 3.1547397337239280e+00 9.8325019576793338e+00 -1 2 1
463 1 7.3336478310884603e+00 3.5801940386320763e+00 9.8261361213103093e+00 -1 2 1
530 2 7.9278797959033023e+00 3.2612767808373389e+00 1.1446330053062880e+01 1 0 3
529 1 8.2408100934043738e+00 3.3350107693402600e+00 1.2352088279535430e+01 1 0 3
120 2 6.7761043004230990e+00 9.1240715724797350e-01 1.1202896969295182e+01 0 2 -2
118 1 6.0001146497465756e+00 9.0212987937302347e-01 1.0537313393939947e+01 0 2 -2
531 2 8.1826923983912376e+00 2.4180676426832979e+00 1.2681669199090482e+01 1 0 3
235 1 7.7119097500340832e+00 6.3624961940056202e-01 1.2512092241032114e+01 0 4 0
464 2 8.0115716445378631e+00 2.8231288812150725e+00 9.5835284464228412e+00 -1 2 1
95 2 8.6903538101996460e+00 7.8828573076953545e-01 9.5693632667380051e+00 1 0 -5
567 2 1.5184878368500097e+00 6.6626401062097091e+00 1.1626787044141095e+01 2 2 -1
565 1 2.3661490033035761e+00 6.6362596652315498e+00 1.2204625874378129e+01 2 2 -1
566 2 3.1078085003896114e+00 6.0610545581306194e+00 1.1878228767828320e+01 2 2 -1
520 1 4.6390688608848158e+00 5.1613228991389466e+00 1.1792951986004070e+01 3 3 1
431 2 3.4112317221002866e+00 8.0617158758238752e+00 1.1697166609475873e+01 -1 0 0
378 2 1.4838178449476813e+00 7.7622896390204827e+00 1.3116178561958131e+01 -2 -1 2
243 2 1.5621091926348298e+00 4.8408295472122687e+00 9.5338334269521283e+00 2 2 -1
75 2 4.9700382018023230e+00 6.1241053060618427e+00 1.0331156048537309e+01 0 0 0
521 2 5.1867804384054903e+00 4.7672259725957984e+00 1.2547663002960372e+01 3 3 1
246 2 7.7296209996515364e+00 5.1293277330976013e+00 1.0200351781313879e+01 -1 -1 1
244 1 8.1550307651637333e+00 6.0095413657601124e+00 1.0350143574527818e+01 -1 -1 1
245 2 8.4289812157848054e+00 5.9778924573949954e+00 1.1270772959688200e+01 -1 -1 1
134 2 7.5256062894222939e+00 7.5545129098226225e+00 1.0119847041183833e+01 1 -1 -1
269 2 6.8503974271719335e+00 7.1914296243229634e+00 1.2279865547081116e+01 2 0 2
268 1 6.4261430509176192e+00 8.0308160270931950e+00 1.2360205783150029e+01 2 0 2
73 1 4.9689475211373297e+00 6.4901708528443312e+00 9.4402246769447142e+00 0 0 0
432 2 4.8959071146833777e+00 8.5233540224342033e+00 1.1771005364096126e+01 -1 0 0
270 2 6.5640203087948112e+00 8.4389894092359583e+00 1.3262098288531808e+01 2 0 2
133 1 7.0578282241863590e+00 8.1592145743736779e+00 9.5274641742526889e+00 1 -1 -1
74 2 5.4703730099206931e+00 7.3027501533914059e+00 9.3785649063931302e+00 0 0 0
109 1 7.5509441398232513e-01 1.1804069134080924e+01 1.0322109222243933e+01 -1 -2 -1
430 1 3.9507633520665166e+00 8.8839483333452556e+00 1.1599160052465214e+01 -1 0 0
111 2 1.5613417395281861e+00 1.1275260894260093e+01 1.0089544003596371e+01 -1 -2 -1
32 2 3.0924323422405728e+00 9.6467112972597402e+00 1.0544120040506442e+01 0 2 3
31 1 2.6952007473535633e+00 1.0126202346493907e+01 9.6440009070747177e+00 0 2 3
129 2 1.0212526402640831e+00 1.2342668385701876e+01 1.3207705150872640e+01 1 -2 3
93 2 3.4178632302908691e+00 1.0228319859818864e+01 1.2974909443919206e+01 -2 0 -4
543 2 3.4463353175094693e+00 1.2830672725483398e+01 1.2753309637543786e+01 -2 0 1
135 2 6.9827901498134510e+00 8.9023336574464818e+00 1.0095925844183435e+01 1 -1 -1
457 1 6.5222639642080855e+00 1.0864778866550862e+01 1.0398277866062635e+01 1 0 -1
458 2 6.6792715675785859e+00 1.1011998081192253e+01 1.1338734960626573e+01 1 0 -1
572 2 7.7939608213266638e+00 1.1871307636397406e+01 9.7278668004037936e+00 -1 2 1
459 2 5.6373063234126519e+00 1.1257903652634752e+01 1.0199515295225295e+01 1 0 -1
148 1 7.0828958900818195e+00 1.1222376216964911e+01 1.3038140236812911e+01 1 -1 0
477 2 8.5114469175927621e+00 1.0051490157758463e+01 1.3082630549556349e+01 2 0 -3
150 2 7.5114674985891998e+00 1.2094218816281753e+01 1.3091862332551086e+01 1 -1 0
571 1 8.3480376157596243e+00 1.2590964691598705e+01 9.3835934908251790e+00 -1 2 1
177 2 1.7215902655521980e+00 1.6587638151657728e+01 1.0614868829300050e+01 0 -1 -1
175 1 1.6809349725902540e+00 1.6748632850312710e+01 9.6413589001193358e+00 0 -1 -1
397 1 2.7397282078933354e+00 1.4167479723922773e+01 1.0066108252717957e+01 1 1 0
541 1 4.1054323323626143e+00 1.3563156510470630e+01 1.3088985031335580e+01 -2 0 1
3 2 3.3298644538579873e+00 1.6961828414245250e+01 1.2575933438917419e+01 1 2 1
399 2 3.1866430666532848e+00 1.3362773227502245e+01 9.7612175274166066e+00 1 1 0
398 2 1.9059405712061688e+00 1.3830430603251347e+01 1.0396184975753025e+01 1 1 0
40 1 2.4485829610752461e+00 1.5689692001787941e+01 1.2787478662590464e+01 2 -1 0
41 2 3.0897118182719803e+00 1.4920089898094490e+01 1.3056927892382236e+01 2 -1 0
176 2 9.6591960860091919e-01 1.6053443078595350e+01 9.3921313389583965e+00 0 -1 -1
236 2 7.2284622304585122e+00 1.6797980620192483e+01 1.3122444115963086e+01 0 3 0
119 2 5.7733293372970111e+00 1.6623878278771524e+01 1.0655594023071876e+01 0 1 -2
237 2 8.6016345437173332e+00 1.6826264931712689e+01 1.2604408285621398e+01 0 3 0
381 2 4.8826563147705304e+00 1.4375521088143026e+01 1.1078033659402211e+01 -2 -2 1
379 1 5.6654561687882419e+00 1.4781880393352548e+01 1.0633368481064103e+01 -2 -2 1
380 2 5.6306801899292962e+00 1.4451901600364600e+01 9.7436959681308029e+00 -2 -2 1
301 1 7.6679673381024402e+00 1.3843028745620925e+01 1.2319162381253200e+01 -1 -4 1
302 2 7.0533396209458443e+00 1.4282021291213061e+01 1.1670377868255951e+01 -1 -4 1
573 2 8.9047393819745526e+00 1.2994411482971177e+01 1.0131291767229113e+01 -1 2 1
303 2 8.5806411725966498e+00 1.3955246531222086e+01 1.2012364644597231e+01 -1 -4 1
512 2 8.0949465261726505e+00 1.4817191594728861e+01 9.4442023471681065e+00 1 0 -1
511 1 8.3895038976386296e+00 1.5737297699794665e+01 9.5476519483144209e+00 1 0 -1
351 2 1.3142992777021894e+00 1.9583119560649636e+00 1.3592569897503898e+01 0 -1 -2
504 2 1.4904185440047004e+00 2.8150936054419335e+00 1.6993008577130539e+01 -1 -2 2
192 2 4.3301923625806165e+00 1.9499401091178068e+00 1.4141727348343021e+01 2 2 -1
190 1 4.2246164533008228e+00 2.6671550452072119e+00 1.4804592973941782e+01 2 2 -1
503 2 1.3636571948935614e+00 4.0550356339112561e+00 1.6237756629502652e+01 -1 -2 2
478 1 2.2575759887731932e+00 1.4270145417563691e+00 1.6132457397972829e+01 0 -1 -1
480 2 1.6318712567265292e+00 1.4312613903404223e+00 1.5382734496419527e+01 0 -1 -1
363 2 2.8428428013585552e+00 4.3241689847881659e+00 1.4227222719698398e+01 -3 -1 0
191 2 3.5055005325639792e+00 2.3006899280323352e+00 1.5398246806218543e+01 2 2 -1
349 1 7.7820531897233336e-01 1.3641493962930862e+00 1.4134021684900608e+01 0 -1 -2
502 1 9.7758119677803357e-01 3.6442817174042363e+00 1.6973226150111600e+01 -1 -2 2
479 2 2.8540245608026171e+00 6.3643996331366726e-01 1.6156358137079859e+01 0 -1 -1
80 2 7.0813557452500788e+00 3.9645429345551775e+00 1.3509488829111405e+01 -2 4 1
79 1 6.3008910882779157e+00 4.3571642743218959e+00 1.3973048334390372e+01 -2 4 1
59 2 8.3430702392702898e+00 4.2841400303207120e+00 1.6412253750633283e+01 2 1 -1
277 1 6.3162317402880115e+00 1.0616502133355610e+00 1.7055867719767214e+01 1 4 -1
81 2 5.7815823017744510e+00 3.7218186684405654e+00 1.4475621982230123e+01 -2 4 1
279 2 6.1678038130796935e+00 1.9847957334891473e+00 1.7003091136878474e+01 1 4 -1
278 2 5.8520154837654728e+00 6.0844443825958427e-01 1.6366013533061341e+01 1 4 -1
58 1 8.1099334931283842e+00 3.9833866557672080e+00 1.7314476163881231e+01 2 1 -1
361 1 2.2009511265197750e+00 4.6478868602583532e+00 1.4898406881330253e+01 -3 -1 0
362 2 1.3789920280795784e+00 4.6745737171877426e+00 1.4399202332724711e+01 -3 -1 0
376 1 8.4302293695047370e-01 8.4563274680598610e+00 1.3401334022240826e+01 -2 -1 2
284 2 3.0095210057552619e+00 5.7938606155888790e+00 1.6144728766837765e+01 0 1 0
285 2 3.7916300620912025e+00 7.2886759259800220e+00 1.6189799219652748e+01 0 1 0
283 1 3.7361787109697797e+00 6.3915601826577193e+00 1.6534536299625309e+01 0 1 0
207 2 3.0050659690857673e+00 8.6868635318575027e+00 1.4545260306321765e+01 -2 4 -1
205 1 3.7756321790444440e+00 8.6925407467800646e+00 1.5111845496761067e+01 -2 4 -1
19 1 6.9556046941868177e-01 8.2094079758705369e+00 1.6799717755854871e+01 1 1 3
195 2 6.6678420531652289e+00 7.8134692589999162e+00 1.5281634051122470e+01 0 0 -1
282 2 6.6526872423604475e+00 5.5766210056581720e+00 1.5144411476752706e+01 1 2 0
281 2 5.6271988750993698e+00 6.2072068297115059e+00 1.6227829287837721e+01 1 2 0
280 1 6.5697739915894875e+00 6.2417347448477862e+00 1.5881060450993601e+01 1 2 0
497 2 8.0710387633583469e+00 6.6989076369001594e+00 1.6921505925116676e+01 -2 0 2
193 1 6.6801354123563925e+00 8.6970814423232330e+00 1.4928097646288837e+01 0 0 -1
496 1 8.4315058645836807e+00 7.4875515733241444e+00 1.7250486400479986e+01 -2 0 2
259 1 3.4518276340455221e+00 1.0551593970094650e+01 1.7000099531995680e+01 0 3 2
261 2 4.2895805645990297e+00 1.0980187592996442e+01 1.7101149404373693e+01 0 3 2
116 2 9.2331619013592059e-01 9.7151392513044357e+00 1.4371915178207033e+01 0 -2 2
91 1 2.9997028083618518e+00 1.1021761410725150e+01 1.3385699646810814e+01 -2 0 -4
92 2 2.3988825365498516e+00 1.0594724215586620e+01 1.4020001742111784e+01 -2 0 -4
206 2 3.5216782538650633e+00 9.3773057148466954e+00 1.5832458364980717e+01 -2 4 -1
336 2 4.2784370446740443e+00 1.1541567049768528e+01 1.4588354672323959e+01 1 1 0
115 1 1.2245744571010742e+00 1.0331866444605408e+01 1.5068902000401913e+01 0 -2 2
260 2 2.8730354271433010e+00 1.1301619759685552e+01 1.6710148821454219e+01 0 3 2
20 2 9.4865736437094794e-01 9.0985137321821590e+00 1.6552796947678676e+01 1 1 3
353 2 8.7188894773158161e+00 9.7343524154653593e+00 1.6820331813399577e+01 -1 1 0
88 1 6.0355846991628770e+00 1.1522482729239861e+01 1.7429518406876717e+01 -1 -1 0
276 2 8.9371998970621114e+00 1.1635852877022192e+01 1.6256467419027189e+01 -3 -2 0
149 2 6.5413257569212897e+00 1.1272812400016919e+01 1.3853161378691308e+01 1 -1 0
334 1 5.2194855319567983e+00 1.1694396024142563e+01 1.4763089879225594e+01 1 1 0
194 2 5.7922116497769043e+00 9.0521036098694179e+00 1.5084952874275420e+01 0 0 -1
335 2 5.4086654118685313e+00 1.2161270839763549e+01 1.5582945072684558e+01 1 1 0
354 2 7.7316470551386409e+00 9.8760806372950736e+00 1.5667206834638206e+01 -1 1 0
352 1 8.6099100893529510e+00 1.0180480308083492e+01 1.5976799824684189e+01 -1 1 0
42 2 1.8453567965696294e+00 1.5870603675652456e+01 1.3563317628005340e+01 2 -1 0
561 2 2.4254540587799287e+00 1.3054492523384686e+01 1.5528115248077857e+01 0 0 -1
61 1 3.6165081915868882e+00 1.5838085070783526e+01 1.6895528109028007e+01 2 -2 -2
63 2 4.5448587942021792e+00 1.5567872304027677e+01 1.6810677144282600e+01 2 -2 -2
559 1 2.4665699642697767e+00 1.3159797686229702e+01 1.6469627632485839e+01 0 0 -1
62 2 3.1812623492869521e+00 1.4975728050935356e+01 1.6839087704671591e+01 2 -2 -2
560 2 1.5193288837611214e+00 1.3517295798054638e+01 1.6680614751649991e+01 0 0 -1
510 2 6.8056308147837519e-01 1.5573649272800772e+01 1.5731019380881603e+01 0 0 0
358 1 5.7335029976382659e+00 1.6527581757139355e+01 1.4528635106143774e+01 1 1 -1
254 2 8.6299113858474055e+00 1.5767390977423531e+01 1.5824411353571563e+01 0 0 -2
253 1 8.6931142592799837e+00 1.6557055691715981e+01 1.6458725369114379e+01 0 0 -2
360 2 5.3202156093098356e+00 1.5641958095277511e+01 1.4614130655600171e+01 1 1 -1
542 2 4.8222596706835388e+00 1.3010617710131188e+01 1.3557462569804587e+01 -2 0 1
255 2 7.7877690695721409e+00 1.6923085262384053e+01 1.6537577466618870e+01 0 0 -2
528 2 7.8372134491501235e+00 1.4217004020088631e+01 1.4000140336372890e+01 -1 -1 -2
359 2 5.1737633661548035e+00 1.6950219645981523e+01 1.3862776756831229e+01 1 1 -1
523 1 5.6811284564326838e+00 1.4461945688984626e+01 1.6632259105392034e+01 0 1 0
526 1 7.8717122234278589e+00 1.4356598065886139e+01 1.5023921530489142e+01 -1 -1 -2
524 2 6.4863914383535377e+00 1.4458195706310230e+01 1.6096203801112402e+01 0 1 0
527 2 8.3582003826491729e+00 1.3587620272290085e+01 1.5428676322097719e+01 -1 -1 -2
525 2 5.8368180031086760e+00 1.3697990522676010e+01 1.7111098037113663e+01 0 1 0
160 1 1.0353355592261078e+01 2.2951354178665122e+00 1.7342893461337938e+00 1 2 1
161 2 1.1132918578081116e+01 2.8313977621472710e+00 1.7360675510577370e+00 1 2 1
271 1 1.2725062274456681e+01 3.6182141558697722e+00 1.0679586830218846e+00 -2 2 1
273 2 1.2806042867583246e+01 3.6723658929187915e+00 2.0768557916911918e+00 -2 2 1
562 1 1.2386001659130581e+01 3.2869435003673479e+00 4.1240179149438951e+00 0 0 3
563 2 1.1504852853670371e+01 3.6187620879659601e+00 4.2950410782365207e+00 0 0 3
124 1 9.8985956923659089e+00 4.4631171000221732e+00 4.2333152952828881e+00 2 1 0
23 2 1.3009673079799141e+01 2.0315177504750737e+00 3.1452647669836491e+00 2 1 0
35 2 8.9996105983903938e+00 1.8172501951934090e+00 2.5158052078334148e+00 -1 2 -1
564 2 1.2892254463529396e+01 3.7523952320584910e+00 4.8120976112466991e+00 0 0 3
24 2 1.2466762849701128e+01 6.4602692047250487e-01 3.0152243647364871e+00 2 1 0
162 2 1.0592868120195019e+01 1.5129036162173826e+00 1.2218173033080173e+00 1 2 1
125 2 9.2375597029531278e+00 3.8747754263693572e+00 3.8797167243441359e+00 2 1 0
27 2 1.6860462158726442e+01 5.1866955347867527e-01 1.3877386569748691e+00 -1 -2 -1
374 2 1.4841690216381258e+01 6.2376876165022421e-01 3.4644309091483825e+00 1 0 2
373 1 1.5761586089319620e+01 8.6977273802823762e-01 3.8325214034916555e+00 1 0 2
487 1 1.5774598328359708e+01 4.2290122795122240e+00 4.0270289544851501e+00 -1 0 0
488 2 1.5531748746663835e+01 3.3308256553355595e+00 3.7862175141414141e+00 -1 0 0
489 2 1.6575969178775225e+01 4.4347600289531108e+00 3.3959336126742192e+00 -1 0 0
375 2 1.5572950321569303e+01 8.3642370630943330e-01 4.7369296929313061e+00 1 0 2
345 2 1.3451427378068221e+01 8.6229353033815903e-01 9.6321211729917033e-01 0 -1 1
22 1 1.3246072607333545e+01 1.1401449996783728e+00 2.7472276219699285e+00 2 1 0
272 2 1.3586663235128841e+01 3.2772262662053575e+00 7.9244480371025638e-01 -2 2 1
126 2 9.8199842024888380e+00 5.2903593510153417e+00 3.7660945835345641e+00 2 1 0
481 1 1.2100828205402001e+01 8.3506597542554353e+00 3.2895508720357101e+00 -2 -1 3
482 2 1.2729232326544574e+01 7.5498803545933573e+00 3.4950023021084982e+00 -2 -1 3
197 2 1.0997973862025631e+01 7.4113437560471462e+00 2.8981271270860742e+00 0 2 1
196 1 1.0196069259248240e+01 6.8664883815351239e+00 2.4822322666490875e+00 0 2 1
483 2 1.1761965231288514e+01 8.6652449161496286e+00 4.1387604166325058e+00 -2 -1 3
198 2 1.0589570792972202e+01 6.4065916565241512e+00 1.7365642872387679e+00 0 2 1
72 2 1.4329133112465385e+01 5.2638462800683712e+00 3.6885538337114760e+00 1 1 -2
70 1 1.3561182383942194e+01 5.7665960850496445e+00 3.2937113417269264e+00 1 1 -2
71 2 1.3932033265927974e+01 6.0496908127089890e+00 2.4176732251533197e+00 1 1 -2
420 2 1.5653893004770318e+01 7.3310445787180107e+00 4.5547386022918790e+00 0 4 1
418 1 1.6469631290634940e+01 7.0904533111198438e+00 4.1232320282705350e+00 0 4 1
519 2 1.4917093142015725e+01 7.2653841399238717e+00 1.3405540572239640e+00 1 -2 1
419 2 1.6353383472306668e+01 6.4720318574760265e+00 3.4678344645117849e+00 0 4 1
517 1 1.4436569055238586e+01 6.5387500078005614e+00 9.5424961437442168e-01 1 -2 1
294 2 1.1964468302885439e+01 9.7177074115675257e+00 2.4977498910943212e+00 2 1 -1
292 1 1.1893566931293231e+01 1.0432208567648770e+01 1.8522172629923079e+00 2 1 -1
293 2 1.0989163661040273e+01 1.0483993590391879e+01 1.7240365993125144e+00 2 1 -1
544 1 1.1717499109666385e+01 1.2495121302603307e+01 4.5769038107721425e+00 0 1 3
545 2 1.1153369594786339e+01 1.2685622113723333e+01 3.8494706227774924e+00 0 1 3
546 2 1.2609817065264318e+01 1.2795007523394307e+01 4.3590867341234674e+00 0 1 3
84 2 9.5212767706328343e+00 1.2821220063867862e+01 1.6643695040446931e+00 0 0 1
342 2 8.9775757865971642e+00 1.0524272544408779e+01 2.9537841891526573e+00 -2 0 -1
340 1 9.1752343074657077e+00 9.9651383039719370e+00 2.1780205441644700e+00 -2 0 -1
507 2 1.6881329595790135e+01 1.2600790518264494e+01 8.1609258029025378e-01 -3 -2 1
473 2 1.6937384440080592e+01 1.2018469884580979e+01 4.6522706130758449e+00 0 0 0
331 1 1.4751868570157932e+01 9.3407395779334035e+00 1.5795784298860123e+00 -1 -1 -2
333 2 1.5538847893248709e+01 9.9063174263823282e+00 1.3303835695943760e+00 -1 -1 -2
332 2 1.4446018440342815e+01 9.7438477992467227e+00 2.3613025043220510e+00 -1 -1 -2
297 2 1.3339136527585095e+01 1.1508266479600190e+01 1.3234921921206251e+00 0 0 0
472 1 1.6303495255340017e+01 1.2543106113022066e+01 4.1238078047349482e+00 0 0 0
112 1 1.4096976115955014e+01 1.0877807836537878e+01 4.2605022776818835e+00 -1 -2 -2
113 2 1.4926993644051747e+01 1.1336642573646971e+01 4.0055034666179115e+00 -1 -2 -2
548 2 1.7112732245087248e+01 1.1593793601006315e+01 2.5704720835719042e+00 1 2 0
99 2 1.4018118629653111e+01 9.0783381077928844e+00 4.7054235551776653e+00 -1 1 -2
547 1 1.7245647905561881e+01 1.1153017078467991e+01 1.6997398300821736e+00 1 2 0
82 1 1.0019322091428680e+01 1.3073747676379234e+01 2.4403020036667726e+00 0 0 1
413 2 9.0144769412724362e+00 1.5899807526326974e+01 1.3973829120697518e+00 -1 0 1
85 1 1.1327005695761841e+01 1.6367755721696525e+01 3.8569306921579316e+00 -2 0 -1
87 2 1.0534600278870146e+01 1.6214451166511488e+01 3.2869599126796665e+00 -2 0 -1
412 1 9.1057370451959621e+00 1.5597146025658271e+01 2.3172425453390888e+00 -1 0 1
389 2 1.2750729846298167e+01 1.4997667258602144e+01 4.1900220407866966e+00 2 -3 2
86 2 1.0985330342789073e+01 1.6948226316389508e+01 4.5484171010770167e+00 -2 0 -1
225 2 1.1290686513854657e+01 1.4260540958396785e+01 1.0775872626376657e+00 0 0 -1
83 2 9.6702208131833434e+00 1.3958167070018940e+01 2.7139779703314888e+00 0 0 1
506 2 1.6088107419371280e+01 1.3989377318058432e+01 1.1283247801670715e+00 -3 -2 1
474 2 1.6538619503121865e+01 1.3531287460256364e+01 4.0907566565438920e+00 0 0 0
388 1 1.3530074547718222e+01 1.4435152679592962e+01 4.2800678359546804e+00 2 -3 2
169 1 1.4708438566051111e+01 1.4702005102061459e+01 1.6475633309715971e+00 -1 0 -1
171 2 1.4480704979970097e+01 1.4508753020359622e+01 2.5830367165305903e+00 -1 0 -1