LAMMPS data file via write_data, version 8 Apr 2021, timestep = 1821000

1008 atoms
2 atom types

-0.45828826806724626 21.130814925295414 xlo xhi
-0.45828826806724626 21.130814925295414 ylo yhi
-0.45828826806724626 21.130814925295414 zlo zhi
0 0 0 xy xz yz

Masses

1 16
2 2

Atoms # atomic

424 1 9.513926696479158 5.1377646704515385 1.5780699577057984 1 2 3
349 1 14.648118642703267 -0.44128134701289373 1.907498973430608 1 2 -2
571 1 5.180125033861487 2.4449554918214673 9.404918684640652 -3 -2 2
355 1 6.136876947509183 3.941369279346664 5.350232503383099 -5 3 0
758 2 7.424489822541087 2.8208402014010137 5.545668112539665 -4 4 -2
418 1 4.0942756202547725 2.9449660236397075 3.9064589270114007 0 0 2
344 2 5.601328286276491 5.2667304247903015 3.53955017760552 1 2 0
943 1 5.338343221854859 9.276551094701585 6.532767054696185 1 -1 -1
759 2 8.010820432438093 1.3192675176007551 5.666296783048864 -4 4 -2
944 2 5.995008286313128 8.522498247469528 6.546045743491142 1 -1 -1
891 2 1.223803194046905 6.498376274646113 3.400734679975169 0 -1 3
815 2 13.094340578976064 9.788329212958438 6.2591383073379445 1 -3 0
775 1 7.2062317983243265 7.437967342464472 6.8751719219423 0 0 1
32 2 0.7792159422077951 1.7463309435322558 5.382776704046689 -2 3 -1
48 2 4.241309907922333 6.342635125446548 1.3759131651505816 1 -2 2
752 2 8.66482410223076 2.727053066402892 3.9004368832824934 -3 -2 3
215 2 0.16678876629475065 9.194291524770023 5.597744633263422 2 -2 0
907 1 9.342480741734901 2.7120590081629192 8.091878881985748 -4 -2 1
777 2 7.5153584356592 6.82555752711142 6.171015258059512 0 0 1
572 2 5.0645775777995095 3.079415293475324 8.626366906841596 -3 -2 2
565 1 3.1133201575985723 8.188664981201194 7.361902584930289 -1 -5 1
573 2 4.451274884454682 1.792212432778515 9.327294292367549 -3 -2 2
776 2 6.931514547856818 6.891010711362209 7.694855689473799 0 0 1
79 1 7.544879656722765 6.76397787154603 1.4117816452693657 -2 -1 -2
343 1 5.439848991643491 5.480490487881346 2.617334604121904 0 2 0
753 2 8.329844837073514 2.220136920323804 2.3701194961102003 -3 -2 3
788 2 9.719947206791566 5.578457904910674 9.167887847618493 1 1 -4
590 2 -0.2573667036118775 3.6388102264934616 0.5731560281651957 3 1 -1
527 2 9.41977537734023 9.19145599139062 5.985869926875192 -2 1 1
31 1 1.3086708653633665 1.111073344859555 5.901299400963293 -2 3 -1
751 1 8.90375586744548 2.8507466575952325 2.9265902639519488 -3 -2 3
660 2 1.842624477956352 5.453146702807063 7.231617912107994 2 1 0
81 2 7.862202381868176 7.6477051898122905 1.6845825549245688 -2 -1 -2
253 1 0.021112787977720204 2.409203796670527 1.8166382109730685 1 -1 1
467 2 10.676358652766833 1.7363491145079912 -0.4369595284726186 -1 3 -1
583 1 5.80723922110333 3.1255306775957146 0.8308464458433769 1 1 1
528 2 8.372904438182767 8.554943055263893 6.97013526587904 -2 0 1
570 2 2.48646852354368 0.6858391688132663 9.08070892012904 1 -2 1
356 2 5.50553342835485 3.494758796850884 4.7296531568950995 -5 3 0
118 1 18.351579043094777 0.10474611435646192 5.863097924102445 -1 0 -3
7 1 2.274436824710847 8.721774332284532 1.1398512927211961 -1 -2 2
203 2 9.04412421507268 5.472169750153174 5.119812727229071 0 1 -3
357 2 5.638861168969453 4.273953396373528 6.109525292879196 -5 3 0
291 2 4.03648892342901 4.7359963144486885 7.376875843645918 3 2 2
526 1 9.081733272647467 9.257680928701017 6.927622606770999 -2 0 1
637 1 0.2878133211676647 5.162930812388623 7.748104866617178 1 -1 1
214 1 -0.4324906936585591 8.940659016091852 4.780372677440321 2 -2 0
99 2 0.8604913886723426 1.9307746232163931 9.171004137227612 3 -3 1
289 1 4.883397715463194 4.4040701324888225 7.687976054944574 3 2 2
567 2 3.2418551035936676 7.933328288627626 8.269796207327914 -1 -5 1
80 2 8.344042810151265 6.206555014643185 1.3653828539045934 -2 -1 -2
659 2 2.8603996340365963 6.636746607612307 6.874316254212199 2 1 0
757 1 8.274014904186032 2.2895509775292675 5.585567552749976 -4 4 -2
290 2 5.418267784121154 5.073816433714442 8.167297060540877 3 2 2
97 1 1.0510906635668327 1.1435878868807459 8.618844111948448 3 -3 0
33 2 1.177186183645477 1.3099672338471264 6.86703900582321 -2 3 -1
169 1 8.263490967905343 9.29517348503419 1.3289915918250097 3 2 -1
658 1 2.7111908033845027 5.6119899300570415 6.754480254738417 2 1 0
411 2 6.628993800358229 6.786718838626481 -0.04030571215221097 1 1 -1
999 2 20.357029149264704 -0.2991832332078892 3.0348284420025538 -2 3 1
908 2 9.0248939789634 2.6946010901637876 7.175960720489982 -4 -2 1
592 1 2.6179893807694548 2.5892633845035813 1.5642809012383458 1 3 1
568 1 3.3996325528957576 0.3730064757049632 9.370585589218084 1 -2 1
401 2 6.963893180188449 10.21691885162401 0.6200172300863732 -1 4 -4
345 2 6.20347897371859 6.029639484821358 2.3159677593347823 0 2 0
204 2 7.464141483259511 5.065760374785258 4.921521033809755 0 1 -3
174 2 1.7593188815502225 9.203410079988913 6.973936492281286 2 1 0
94 1 0.8738238355900174 3.5530814604054433 9.83638054384284 5 -2 -3
662 2 6.561172824114538 -0.2937841630732486 6.583306530792545 -4 0 -1
202 1 8.142109278057468 5.785267977064498 4.876092324484476 0 1 -3
612 2 2.1711461696037593 5.248109610283701 5.142939845297991 -1 2 0
869 2 17.458436689538203 2.974156409639464 0.015731293782748415 -2 0 -2
425 2 9.19672666285542 4.426574094671797 2.1674670492858397 1 2 3
889 1 0.8853164284116344 7.326384600647776 2.9853975394726695 0 -1 3
255 2 1.022829880382988 2.4506479849172194 1.6678703021661794 1 -1 1
789 2 9.132609816224086 4.194161608046866 9.147273699590649 1 1 -4
600 2 7.352089673853988 5.648906867061567 9.279862480846115 -3 0 -1
254 2 -0.3086608213434619 1.5017049819266004 1.6628748466954375 1 -1 1
890 2 0.43108853646401596 7.828648055936233 3.652724178359674 0 -1 3
909 2 8.866682418693049 2.030357760142122 8.55145352660193 -4 -2 1
219 2 6.3881603294235365 0.06288769249256226 1.2000946352141943 -3 3 -2
47 2 3.3369380019052786 7.4759231277940845 0.819012651480969 1 -2 2
98 2 0.34485192984683094 0.5080709542871427 8.70909526856624 3 -3 0
458 2 11.17211901858795 4.561173596679581 5.233535453838141 -2 1 -1
9 2 2.834151446779138 9.438060286509442 1.5324176529407076 -1 -2 2
873 2 2.8046421024508925 0.7831345082083105 5.429051705491717 -1 1 0
181 1 20.602056892309978 -0.07638907391243499 1.4303289475276026 -1 1 3
453 2 0.05807976338345128 2.6546340469898166 3.4887259132825736 -3 -1 -1
871 1 3.689871747593389 0.5469683503081435 5.053645362910517 -1 1 0
566 2 3.976090729519016 8.612517727515323 7.117771901528394 -1 -5 1
452 2 0.8052536219545476 3.647418291489676 4.366591199462819 -3 -1 -1
787 1 8.997075259123124 5.060296525625731 9.567495212108058 1 1 -4
768 2 15.757614246525765 7.759978634064751 10.145492131450583 2 0 2
338 2 14.418821568372158 5.9328226696310145 9.718482587366054 -2 -1 1
419 2 3.879805449965259 2.7898776680550306 2.9329867385440807 0 0 2
589 1 -0.140145481414646 4.4236050123632475 -0.019697901463077046 3 1 -1
451 1 0.09305527995149693 2.946168060120064 4.438209722979433 -3 -1 -1
598 1 6.530144397820632 6.085285326517131 8.914525959937004 -3 0 -1
177 2 15.246685385831922 3.771550064054906 -0.3384631588940598 0 2 3
55 1 3.0309562551276756 7.188025650534253 9.91230148013558 -3 1 0
593 2 3.0716073328867854 1.8185885576183778 1.111048616855055 1 3 1
481 1 7.655097230266334 0.9176895366195383 9.44719378085958 1 0 -1
611 2 2.641765434709333 4.460450542051458 3.9717384937763214 -1 3 0
420 2 3.852892096409974 2.080555967676674 4.374525652651168 0 0 2
610 1 1.8661185949578147 4.9592021845994365 4.226576053154889 -1 2 0
8 2 1.7054370892476576 8.317971306744994 1.8684963855642773 0 -2 2
273 2 15.570458754784951 8.013044437772416 -0.25732968605683093 0 0 0
599 2 6.182681346042265 6.745254730989553 9.561725807597561 -3 0 -1
805 1 15.227237296673223 1.876497031812479 10.333577203549433 -1 1 0
783 2 2.8767297009505963 5.29550269153283 -0.0768074132800421 1 1 4
673 1 18.02967914800667 1.6590309213300674 9.948648430587737 1 2 2
675 2 17.060100093356965 1.578468397073725 9.915892096232108 1 2 2
172 1 1.0066703253688176 9.78232485864226 6.760009077453836 2 1 0
426 2 9.734716534990703 4.766177696212908 0.7270777673554856 1 2 3
882 2 11.786360466647187 10.036132936340534 4.63872383382551 -3 -1 -1
483 2 6.8751709850039004 1.5540618310128274 9.41935342767065 1 0 -1
661 1 7.368433803044901 -0.17379830463897583 6.076200573022224 -4 0 -1
457 1 10.847232263389675 5.466146280742289 5.433062655310794 -2 1 -1
95 2 0.5295838687161216 4.167940296865385 9.147030292332545 5 -2 -3
835 1 10.393796827078877 9.19794683147482 4.545473367789015 1 -1 0
196 1 7.607996179465893 1.3561430065321212 1.22860702526426 -1 1 1
71 2 -0.3276337049188085 6.867255670278665 1.9063700429670574 1 -3 1
197 2 7.011229779952193 2.0538698566531277 0.9600902727699676 -1 1 1
299 2 10.177263756435183 9.785531999911605 9.715954132863418 3 -2 0
171 2 9.113003288690479 9.00531908911498 0.909095018796825 3 2 -1
337 1 13.600352069221248 5.342061831765758 9.587877041654377 -2 -1 1
837 2 10.500171799318283 8.402746277084152 3.9937656359922684 1 -1 0
119 2 19.07270381047269 -0.06380352635082359 5.198588473945392 -1 0 -3
186 2 10.353202088863332 8.767240064760971 7.789416991907721 4 2 0
184 1 11.089409702139173 8.627809588948928 8.419738027097521 4 2 0
146 2 13.426998720537124 9.651545594616142 2.1790078266933786 4 1 0
639 2 -0.37935331166007286 4.722003964607813 7.120906552121341 0 -1 1
39 2 11.337875269950967 8.418865409238913 0.6165122834046011 1 -2 -1
750 2 13.747377466575085 3.7887291199690845 4.036498595875965 1 3 5
469 1 12.409550387391608 3.08881107444476 4.858829818390256 -2 1 -3
37 1 10.593664658852411 8.655048199378886 0.028631221818556978 1 -2 -1
100 1 15.972040194001941 0.6286124304496288 5.000201071991269 -4 -1 0
350 2 15.004777247836559 0.4622852197265109 2.114872391821326 1 2 -2
198 2 8.184339923598614 1.149165061530353 0.4587431673069305 -1 1 1
945 2 5.143029170568328 9.513095645851587 5.585296658251641 1 -1 -1
26 2 1.2845603579724982 9.619344176385246 -0.05467922566858827 2 1 0
638 2 -0.14857524069973843 5.987689519255721 8.023789732516477 1 -1 1
104 2 16.67994146949452 9.56521643444718 3.914776993578603 -1 -1 0
872 2 3.502719314109988 -0.15540808643616466 4.410291349605552 -1 1 0
307 1 21.056472720191245 9.501776534606277 8.845429965924735 0 -1 0
584 2 5.707355927027481 3.907795122065087 1.4219627255922083 1 1 1
766 1 15.826340445015102 6.889188516728763 9.643612911442112 2 0 2
868 1 16.928238135332908 3.458510848031839 0.7088944941508946 -2 0 -2
470 2 12.057384533732776 2.6149211816059594 4.063743676078875 -2 1 -3
46 1 3.80741796829919 6.647211440221408 0.5509275883770041 1 -2 2
814 1 13.298126918957434 9.46687446227885 7.183731612227755 1 -3 0
680 2 11.497919186310599 2.043535865794363 1.5626599066731002 2 -1 1
147 2 14.869528785807047 10.211199988779954 2.574781094804219 4 1 0
979 1 19.945370727115343 8.891353940370594 0.05020813324422422 0 1 2
185 2 11.880961318529971 8.967923425666648 7.952073716941312 4 2 0
767 2 16.741168590794135 6.558200325291118 9.778688721904032 2 0 2
980 2 20.21428533148527 8.019216615598905 0.4188298671992077 0 1 1
294 2 10.461327224671392 6.315587934352699 2.6191041864472586 4 -4 4
70 1 20.62678556875373 6.632660462930643 1.226463300937582 0 -3 1
103 1 16.4271501595652 9.728615874429327 2.9820811073446603 -1 -1 0
308 2 0.08209959960171082 9.721133190120948 8.111546815768381 1 -1 0
459 2 11.115996292969717 5.63293885661133 6.372550310850747 -2 1 -1
105 2 17.29084918024904 10.093876417655178 2.6024245289690966 -1 -1 0
863 2 11.696522724344414 0.35319424378833203 2.7759738907014744 0 0 1
498 2 16.348296403643225 8.82572868566838 6.234909986718222 -2 -1 0
523 1 11.852852677974907 2.063464457151894 7.235638935396753 -3 1 1
774 2 16.332060746207677 8.237923360708143 1.9812400867592022 0 0 -1
293 2 10.875942812761073 6.506352504438966 4.066513274497981 4 -4 4
472 1 18.363424407171816 5.619598782001364 4.700200888337464 0 0 1
178 1 14.110370832372853 3.145457889847005 8.281876256143004 3 0 3
772 1 16.315279699653125 7.480052108760316 1.3789850298849684 0 0 -1
73 1 15.473189701038972 1.9173220584455617 2.7168093729597556 4 -1 -2
231 2 16.761718861733932 5.614784571276167 5.44816342372351 1 1 1
473 2 18.510208413696898 5.510495827914539 3.724236318966714 0 0 1
313 1 20.00101633718016 4.098997331760799 6.18169741878915 0 2 3
681 2 10.3209604992371 2.267171574649797 2.643496932165461 1 -1 1
883 1 11.28772822642026 6.036881527548759 8.23357853939644 0 1 1
474 2 18.99470613379744 4.966042085827531 5.145371105698675 0 0 1
885 2 12.093125323944667 5.775987989517738 8.715926685193928 0 1 1
180 2 13.275379024584655 2.8563580283502543 7.8654249308129565 3 0 3
463 1 18.24587022077707 5.785127947308118 2.0313320769274115 2 1 -1
212 2 14.405618138317841 5.277549875154837 2.319741934842653 -1 1 -2
211 1 14.356995024427196 5.837813108495278 1.511909275879598 -1 1 -2
53 2 18.773391381946006 6.9699072501602535 5.253462956683352 1 1 2
54 2 19.8840793731574 8.214391942065719 5.427153956618756 1 1 2
773 2 15.572773141477573 6.810256128526118 1.5253671948842096 0 0 -1
721 1 15.964700184948015 2.8584350733250625 6.589365859594725 -2 2 -1
75 2 15.760585168297041 1.395138809334567 3.5329943197561655 4 -1 -2
559 1 15.25841196417557 7.673726074553775 7.0650882099022185 3 0 2
52 1 19.060545310134682 7.777169448186145 5.789650649910302 1 1 2
309 2 20.710069686999297 8.571977930566867 8.607660985027481 0 -1 0
947 2 18.70266227183367 1.4605023773067496 6.931394504194032 2 2 2
594 2 2.642990806536467 3.254963485827706 0.8261237681032909 1 3 1
296 2 19.569511004127367 7.431285391265528 7.247742808559445 0 1 0
230 2 15.899156435541045 4.463007212995657 6.0211007200384685 1 1 1
722 2 15.288471881029079 2.9522573367460145 7.340632970294251 -2 2 -1
74 2 15.231707444958383 2.8762245407795515 3.0171990260825954 4 -1 -2
870 2 16.652473527307357 2.778689278126623 1.3194469442609376 -2 0 -2
213 2 14.228765646381692 5.194803130420158 0.7789464122168668 -1 1 -2
497 2 17.748777997844392 8.716756267185588 5.679124175736953 -2 -1 -1
72 2 19.75509574464616 6.409802886266081 1.6369701188034167 0 -3 1
524 2 11.048836075426358 2.2872511101928183 7.747921314413784 -3 1 1
959 2 13.25587174558765 7.374017654702354 1.4042825589424004 2 2 1
525 2 12.195450556496883 1.1711256446846945 7.403274930503991 -3 1 1
496 1 16.936363904981473 9.266526406155014 5.591667013819165 -2 -1 -1
465 2 17.519932250536264 6.489476989232643 1.9369262295472982 2 1 -1
948 2 18.356185989514948 2.0047837752971875 8.362468521333344 2 2 2
229 1 15.843430642959117 5.401147790348761 5.638220601100917 1 1 1
816 2 13.866578819786497 8.689830239632643 7.01839781663368 1 -3 0
748 1 14.516573239816408 4.214700025649415 3.596729061069671 1 3 5
179 2 13.952356357003488 3.987236715134901 8.788682094429458 3 0 3
569 2 3.833643231002327 0.017614991689606452 8.57183079307795 1 -2 1
946 1 18.508236284760645 2.2645333890175117 7.431764663498408 2 2 2
723 2 16.809477315755235 2.587734229303308 6.978807476809994 -2 2 -1
315 2 19.491000067461357 3.3758660080687135 6.709668751770725 0 2 3
295 1 19.98956640278337 7.17489052916051 8.12285296467297 0 1 0
560 2 15.28901643490985 6.83236156042701 6.574022635778559 3 0 1
958 1 12.662351063318386 8.109226302182664 1.6403511272362836 2 2 2
297 2 19.291278259791127 6.79347951578429 8.730012843444927 0 1 0
561 2 15.57741788596195 7.4466302719717685 7.972399473372754 3 0 2
464 2 17.87446079820888 4.968310516081169 1.626854668102795 2 1 -1
410 2 5.08050776887234 6.756521876041133 -0.41398085880314284 1 1 -1
102 2 15.82854910134047 1.3469310026494312 5.644546097816194 -4 -1 0
884 2 11.325822451831442 7.007717544660076 8.365738855929623 0 1 1
679 1 11.286972908333968 1.9219165476248148 2.527763524301403 1 -1 1
960 2 12.168775148738623 7.633141103901863 2.3641729870008903 2 2 2
471 2 12.220051026592028 2.5365004569382883 5.645437070207185 -3 1 -3
749 2 15.082999245512537 4.684545768953458 4.239030636881271 1 3 5
216 2 20.919829380760536 9.815380398293122 4.406137016822661 1 -2 0
849 2 4.120818643859525 -0.10668281603809326 0.47624480764197613 0 -1 0
795 2 0.7280553247330885 9.196616251782237 10.089710132937958 3 0 -1
591 2 21.025026891938804 5.220471281095551 0.44048350234717254 2 1 -1
585 2 5.959404609692751 3.511533131593769 -0.08158194539183444 1 1 1
314 2 20.514625957644586 3.5645091876165766 5.573590386685462 0 2 3
182 2 20.01562809699992 -0.13097436531962636 0.5796462266833444 -1 1 3
806 2 14.830114899591562 2.3653178740078005 9.61974482465162 -1 1 0
292 1 10.835282567836154 6.968805490024959 3.2098866089673823 4 -4 4
101 2 15.227123782943426 -0.0005572753723352974 5.084248770681762 -4 -1 0
351 2 14.626815244368258 -0.4378878084849126 0.923972562761037 1 2 -1
466 1 11.357991794556241 2.318435314799317 -0.053321255355384 -1 3 -1
807 2 15.015012205357445 0.9076913098410719 10.192209872716864 -2 1 0
120 2 17.50125640518466 0.21222618647743535 5.331642332222823 -1 0 -3
781 1 2.3947586092624853 4.512465524419301 -0.3949012282989507 1 1 4
170 2 8.56055750779804 9.979932816327315 1.9959696730605594 3 2 -1
847 1 3.3281068170455512 0.394672202689996 0.15041534805202336 0 -1 0
131 2 19.176546754394767 9.996273861248932 1.1219224284497917 0 1 -2
879 2 4.638478270034021 -0.014792889616425497 6.407947456060162 2 2 2
836 2 9.805846332893157 9.786965268271342 3.972282605061893 1 -1 0
56 2 2.4562875268293585 7.907617214945246 10.25294313821703 -3 1 0
364 1 18.424184025021216 6.29871932038507 10.145020174078688 2 1 1
782 2 1.391867968238047 4.633662099613585 -0.3394254115135926 1 1 4
848 2 2.5002274525972132 -0.14050990498380705 0.2329696957599141 1 -1 0
491 2 9.559860962234128 -0.04658664865020701 -0.30375268205719885 -1 -2 1
697 1 5.718444125624268 1.147102981256246 15.504245355398567 -2 1 -1
20 2 4.282927915984469 1.909324574319076 12.89924205240252 -4 1 -2
900 2 7.9296645331355755 7.965352530655766 18.01482119533004 -2 1 0
385 1 0.9397803634720183 5.755224849809312 13.122867886036486 1 4 0
642 2 5.835430853790673 2.945024414757283 15.705336502031344 3 2 -4
387 2 1.625856539133447 5.581917157464456 12.443628227194413 1 4 0
698 2 6.529770549368829 0.7782139843731906 15.125605584393982 -1 1 -1
194 2 8.293597010833285 2.4853672722318736 18.531058205696958 2 0 1
840 2 7.843637138041512 9.21860025510226 14.597001461166517 3 3 2
189 2 5.308603113273734 3.7952613770842536 12.368632692978656 0 -1 -1
992 2 3.9274486082803897 8.410900274928768 15.579099754970553 1 2 -1
968 2 5.809719574580635 6.5221706171922715 13.024944686013615 0 -1 3
386 2 0.5989267424361973 6.695923452139804 13.047748396285673 1 4 0
916 1 8.801936828465227 5.087127764127008 12.268166775670064 1 0 -1
208 1 3.3556058611819446 5.119386475842839 16.598228910107636 -1 1 -3
839 2 7.98671072242475 8.193417103927613 15.88049769250917 3 3 2
270 2 1.2774804657849532 9.325096339457673 17.857330535643854 0 -1 -4
699 2 5.4153547099204955 0.4939066643227929 16.146173187463084 -2 1 -1
220 1 8.439991654886432 4.780835927969349 16.308412886634944 -2 3 0
919 1 3.6550570533064084 3.7048725472010133 19.012704761678453 -1 -1 -2
209 2 3.4010919466589447 4.702537492633082 17.48999265342877 -1 1 -3
193 1 8.177446459187404 3.4469672899562456 18.695864234472563 1 0 1
887 2 1.830526529061817 1.0943768224389214 17.86197168950996 -1 -2 -2
1007 2 2.4257449439330845 1.0188404649380807 14.053559168043922 1 0 1
489 2 3.570983125178393 0.8163394131185051 20.064199428009385 0 -2 -2
187 1 4.628158930768386 3.297176827195645 11.876257113844673 0 -1 -1
427 1 9.69412557622554 -0.24212040843794685 16.31952462489082 3 2 -1
917 2 9.288609420589708 5.79750059236509 12.690659079162621 1 0 -1
210 2 4.06071720578327 4.638252779879866 16.10945291132866 -1 1 -3
21 2 4.6351127694984315 1.0841093803149349 14.14599217015845 -4 1 -2
86 2 0.7528520446330689 8.58229210255451 12.183789648999639 1 -2 -3
707 2 6.754232676042988 4.0003580182056035 19.335341409699456 -1 0 -2
190 1 6.314880926315075 4.852870090761132 13.214309406269216 0 -2 -1
191 2 7.23647085820624 4.933936279976483 12.902422674101116 0 -2 -1
897 2 8.669150100844618 0.7172569131343522 12.783118936933809 -1 1 1
640 1 5.8893657595466475 3.8987812735280727 15.655125842774975 3 2 -4
838 1 7.931623569112039 8.25055014248241 14.867411741619122 3 3 2
822 2 1.6337487930253909 5.390039594437919 16.06614230736329 -2 -1 -1
268 1 1.9616236684388206 9.148512070870824 18.535152831137108 0 -1 -4
728 2 5.2917448020826585 8.15355090906466 18.10207230825131 0 1 -1
192 2 6.360084441668208 4.584350926201724 14.163937111436667 0 -2 -1
1006 1 1.5309949432560104 0.7070773882776693 14.459666621078023 1 0 1
708 2 6.130424268699467 5.261115711542388 20.154948139775424 -1 0 -1
487 1 3.3857425874220004 1.0419223593905105 19.088985524698607 1 -2 -2
221 2 9.229824227931715 4.3365306717776475 15.882477989538991 -2 3 0
342 2 3.069924699141234 7.894907763728346 17.87594959973594 -1 0 -2
969 2 6.493714777879159 7.7418975929419815 13.602433626450082 0 -1 3
821 2 0.7586708938790159 5.398681589254489 14.779927250815087 -2 -1 -1
886 1 1.1516339650840597 0.9487548030410875 17.186189225231956 -1 -2 -2
397 1 10.50796634216672 9.875041462681086 17.06841363364224 5 -1 2
727 1 6.1574519614744725 8.286321427422992 18.533972308449794 0 1 0
222 2 8.705441483262229 5.670053224243001 16.58657535061725 -2 3 0
888 2 0.6589617176464628 1.8166192484230748 16.98278636201467 -1 -2 -2
19 1 3.944071584563752 1.159593055630582 13.446076847553968 -4 1 -2
820 1 0.6893382684769871 5.372313211619325 15.751993794614506 -2 -1 -1
488 2 3.465741517771258 2.038887783979565 19.06480667108422 1 -2 -2
641 2 6.802907569164562 4.092559030323539 16.018042572326756 3 2 -4
967 1 5.705340340561942 7.519023229675834 13.097957724267564 0 -1 3
206 2 9.16463620475448 7.548704536160596 14.119580583073736 -1 -2 1
850 1 -0.44069929379407063 3.1686758685921412 16.87617261819102 1 0 1
340 1 3.8403680229959987 7.671274930453475 17.35137033794651 -1 0 -2
729 2 6.118363462026673 7.752572563328405 19.388599786536442 0 1 0
1008 2 1.5666291915487172 0.9074251563337843 15.405858792539783 1 0 1
341 2 3.743817973017456 6.674444613947244 17.12284643330357 -1 0 -2
319 1 8.395199824069119 0.513072803025745 18.377198203353093 1 1 2
269 2 1.4212323378286327 9.250698974165712 19.35046899331381 0 -1 -4
895 1 9.128919487524854 0.9841680240770196 11.931780321768167 -1 1 1
732 2 2.358955644576387 9.580378681894425 14.470397294581975 2 0 0
200 2 3.416333492791404 4.357660256654584 11.477335887019917 1 1 0
149 2 5.588247785380294 7.761489363834903 11.548737063572121 2 1 -1
428 2 10.37865800293596 0.24940178958877807 15.872747726495579 3 2 -1
921 2 3.1131051854918947 4.043214301685157 19.753830440188906 -1 -1 -2
195 2 8.336455431990078 3.86837033461918 17.822302617003334 1 0 1
87 2 0.5461259573927411 8.7980027362278 13.655998650735874 1 -2 -3
678 2 15.608161961583818 10.203719783144349 15.264113872268345 0 -2 2
205 1 9.909726947276178 7.073091032831688 13.705118807144599 -1 -2 1
896 2 9.608395465303644 0.13962294810718828 11.723070584782057 -1 1 0
920 2 4.595734009259515 3.9292744178528993 19.29473703295212 -1 -1 -2
898 1 8.718675576396905 7.62173134767799 17.6152276669572 -2 1 0
899 2 9.207839161265964 7.38997680925979 18.411167751859157 -2 1 0
702 2 9.755428348409835 3.8862837591730255 12.506506477427902 -2 1 -1
991 1 4.160074775354955 8.950388707718071 14.813659652740553 1 2 -1
391 1 7.929973269639007 -0.06905543629477401 14.275634766892482 2 0 0
320 2 8.917408175625111 0.21713811414963852 17.587756968201354 1 1 2
677 2 14.375030608426627 9.967652086079648 14.271722221200823 0 -2 2
372 2 14.70401998640983 0.29272213119290386 20.512082933484642 0 -2 1
506 2 0.008386739972179924 -0.14796335358199425 18.118147723282092 0 4 0
963 2 11.03857666223268 9.918210898581108 13.37639387362173 1 -2 0
398 2 9.885534107807285 9.14737932057332 17.255085638239336 5 -1 2
267 2 20.53374705385333 4.125823123314013 20.134989083100105 0 1 -1
793 1 1.4608404056371953 9.109239602852806 10.782791383708215 3 0 -1
382 1 18.335728641328934 3.944654474934394 11.409281487558657 -1 -1 0
846 2 13.562732074318943 10.005547786803183 18.803691130837077 0 -1 0
993 2 4.594716910421956 8.370737075962255 14.1868960443857 0 2 -1
918 2 8.946606694606592 5.207324955694079 11.273231801870057 1 0 -1
238 1 17.226048919369283 9.97083214433421 15.455190811421645 0 -2 3
108 2 -0.11450655840679613 4.579675268603224 12.498498586998021 3 1 3
786 2 0.14383429190303837 1.3546398680125316 13.705597093805228 -2 1 0
280 1 10.118965198193363 4.486618035444594 20.544917084896916 1 3 -2
981 2 19.282117336036166 8.716587035223874 20.96517756381245 0 1 1
492 2 9.135334395217662 0.5692549959343987 19.88753349149675 -1 -2 0
437 2 21.101253230578426 6.631841342977729 16.216077608909615 0 0 0
834 2 13.663109239767657 9.77076066269715 16.371277740658275 -2 0 -1
85 1 0.13187990192433913 8.310763190574539 12.901247524526445 1 -2 -3
691 1 19.36295768357681 -0.24869649845996844 20.740421916604088 0 -2 -1
393 2 8.580493609428432 -0.22371152152829632 14.967947177094509 2 0 0
844 1 13.859907379858475 10.239908709851832 19.701586916530502 0 -1 0
842 2 16.363826681137716 9.80366017877348 11.140087189004378 -2 0 -2
61 1 0.06320379833327844 9.471114463813409 16.82532299925269 1 1 1
321 2 7.670985370899789 -0.07861012121828687 18.376942408740007 0 1 2
706 1 6.035529966724363 4.290641003430642 19.897231416178343 -1 0 -1
852 2 -0.1122790937112707 3.9535829163685747 16.393247574295742 1 0 1
490 1 9.312471781216317 0.7908727564879778 20.818167749962722 -1 -2 0
409 1 6.0216598263251875 6.7168684909399845 20.753244420276566 1 1 -2
701 2 10.02031676124915 2.380194117690839 12.50462393926914 -2 1 -1
199 1 2.6573460889658085 4.954135778241464 11.245388303329538 1 1 0
833 2 12.190733995977224 9.666591685883777 17.12090011290415 -2 0 -1
368 2 10.576588142655254 3.6268454922109425 14.397916511019655 0 2 0
96 2 0.2352956294754664 3.6263694912769493 10.61329953089022 5 -2 -3
107 2 -0.4016099856345497 3.0446531812467694 12.518575298159808 3 2 3
201 2 2.080451416103153 4.451378325912946 10.595438417260775 1 1 0
330 2 19.13764955942983 0.03365116158935133 16.052949849923444 2 1 1
281 2 9.427619002699085 3.9407419412548883 20.115648062665805 1 3 -2
117 2 13.912980798546132 2.4892085183179518 20.191283086545557 -1 -4 -1
384 2 18.19341892274569 3.2326313892259826 10.7873035667497 -1 -1 0
25 1 0.7101710964169166 9.878826101482721 20.763519226894786 1 1 -1
818 2 18.680866778945603 1.2879517994896827 20.35259193502013 -3 1 0
689 2 13.382311151855669 3.7908478050540833 12.64031403502218 3 -2 1
176 2 14.566199175082888 4.604249262067766 20.092318324847273 1 2 2
613 1 10.544665313266565 6.97983049407126 19.427223560987475 2 1 2
962 2 11.019004213113723 9.71610251235778 11.834454359131296 1 -2 0
438 2 20.650758545216334 8.035576410723005 16.428512460696595 0 0 0
468 2 12.208167751563732 2.129189341679402 21.06324969788696 -1 3 -2
515 2 18.27243842632793 9.503658363495257 11.425682718239553 0 2 1
614 2 10.408189792196538 6.0405167490118306 19.72901543729859 2 1 2
700 1 10.390466925199611 3.214730907409064 12.828248383081698 -2 1 -1
794 2 1.9569514543809379 9.977118028390223 10.760200459585333 3 0 -1
367 1 10.71232427587377 3.7424448909772297 15.37264809215588 0 2 0
38 2 10.478095814594607 7.953447348461797 20.96621165758862 1 -2 -2
501 2 17.40960720916425 8.257236347495766 19.89529873269651 -2 0 -4
545 2 14.070186389076227 1.3057031286161322 13.460396161152456 -1 -2 1
858 2 18.459832062856513 2.3446835727928788 15.085821546345388 -1 0 -3
832 1 13.184227991192444 9.514528897544102 17.18766720080708 -2 0 -1
857 2 19.60752760164778 2.296038456418157 16.04070362270866 -1 0 -3
635 2 11.40191812257575 2.1693105079620363 15.393478987158673 0 1 3
68 2 13.34417511295673 6.422119966854644 14.424264162277915 -4 -1 2
711 2 15.424177773740007 5.674284562041853 18.417993287008233 -1 1 -1
67 1 14.066655338956075 6.39014078490887 13.745789935813697 -4 -1 2
499 1 18.28133989425488 8.41918896395015 19.45850116245039 -2 0 -4
136 1 13.034387009668272 0.42116936021212975 17.44498170362962 1 -2 2
148 1 5.444301893260031 7.936703014520047 10.5239497274139 2 1 -1
436 1 20.29944961003321 7.143926470864362 16.187739777413547 0 0 0
310 1 18.93407935000556 6.15463968864755 18.32621835636052 -1 0 -1
712 1 18.04213435180738 7.591411390422948 14.618897225027522 -3 -1 3
42 2 13.475285347463101 6.6238839641507 18.189773843086293 -2 0 2
227 2 12.080625582605345 6.669871655085277 16.356293568331413 1 1 -1
137 2 13.970596347637885 0.412039311090371 17.12440560150763 1 -2 2
596 2 17.399148099151592 2.3177348445329065 18.565408440290366 -1 0 -2
540 2 20.18683799149384 0.6158303012584267 11.99780249548867 3 1 2
714 2 18.83632199518457 7.370068961149461 15.106227135828501 -3 -1 3
634 1 11.648037174886499 1.1768701150780436 15.326957623789863 0 1 3
271 1 15.611659301171592 8.150084671353483 20.36682879226814 0 0 -1
369 2 11.348779554887143 4.499766822227126 15.507735319187246 0 2 0
116 2 13.376241912518765 1.3067073010577321 19.153178833452824 -1 -4 -1
630 2 18.604967906917256 7.924820535605175 13.08965989846579 -2 4 -1
841 1 15.568321961014068 9.33585871203097 10.821224073445388 -2 0 -2
69 2 13.633211407386879 5.824614127638708 13.05286416738383 -4 -1 2
618 2 15.68374967708522 2.6973146350136115 13.297130224099469 0 0 2
595 1 16.95989068455495 2.4542514450714075 17.705957622024155 -1 0 -2
636 2 12.456620407532363 1.0534345041310953 14.74641637256237 0 1 3
690 2 11.87928071398328 4.058480064921233 12.397306008608792 3 -2 1
628 1 19.01487873518222 8.119296323322798 12.187004716310486 -2 4 -1
353 2 16.697056631346577 4.173011693528713 17.396322910529474 -1 2 0
354 2 17.467111999876014 5.497598539141606 17.77405318114017 -1 2 0
709 1 14.64343105122604 5.9350057587292495 19.000852627865967 -1 1 -1
1004 2 13.138881913941134 9.281783219656468 12.832985164230237 3 -1 1
684 2 17.651379925122015 3.3149745016835603 13.01849947579022 -2 2 0
272 2 15.024501862594137 8.907046437440826 20.166485309079643 0 0 -1
266 2 19.714097065160985 4.812464765933352 19.043048917898627 0 1 -2
851 2 20.897588154084858 3.4947006909221825 17.78752079590616 0 0 1