LAMMPS data file via write_data, version 8 Apr 2021, timestep = 0

768 atoms
2 atom types

-1.0527381382221668 30.996085081676327 xlo xhi
0.0016885527949870506 14.168544447205024 ylo yhi
0.08670128183831709 13.619021718161687 zlo zhi
5.1303317745946995 5.101735504178446 3.5394559116610904 xy xz yz

Masses

1 16
2 2

Atoms # atomic

161 2 15.803707540783453 3.6845708907601638 11.604794850551587 0 0 0
281 2 20.308128147722783 7.974989634486059 10.19198103410819 0 0 0
295 1 7.032692918402044 5.180984278105065 6.703838807680405 0 1 -1
297 2 7.8166589942984706 5.483672589814087 6.207895840917553 0 1 -1
164 2 16.37987457507215 8.21373160278247 5.016942311385012 0 0 0
220 1 5.761609493437108 4.618842605955798 2.3004267259006097 0 -1 0
371 2 5.342086291316232 3.300335349764076 3.613490405038157 0 1 1
206 2 16.186396138780452 2.2986271220101986 3.276101742076088 0 0 0
352 1 9.009014928536548 6.2067936260465935 5.085578498150297 0 0 1
150 2 8.76010826807801 5.754710454010844 2.0361086632892524 0 0 1
298 1 12.882377054153654 8.353509379299629 8.133227521290026 0 1 0
101 2 6.684679740010051 7.482330791131156 10.365578278837003 0 0 0
60 2 6.0753915103138825 2.3442026977539316 6.934724097859597 0 1 0
148 1 7.997466326424708 6.087709264605836 2.569013840744714 0 0 1
209 2 18.47004035054272 3.6984937761117744 8.954138283871547 0 0 0
105 2 10.367641245232456 3.01113519226614 8.074798354623153 0 0 -1
39 2 18.71652249447573 7.207978315754483 6.716270667860247 0 0 0
106 1 7.610471319355482 8.73255895837666 11.581178625090244 0 1 -1
162 2 17.29360509007215 3.7400610417269062 12.086341635709715 0 0 0
10 1 3.4299924329455127 5.41666955208804 8.463597800001693 0 1 0
58 1 6.678371772259047 2.5856383287409934 6.214555260349386 0 1 0
59 2 6.808071710055805 3.5834328203552768 6.300224693118499 0 1 0
149 2 8.01337734982037 7.011222182587589 2.2856421222109127 0 0 1
50 2 12.73201182797374 6.7891706919463015 2.0226583265382816 0 0 -1
127 1 2.015990687593973 1.9841881193818172 0.7296485670830283 0 1 -1
41 2 22.13912585330874 10.599569771304774 13.57306304560692 0 0 0
507 2 17.25033523245153 3.264541386027812 4.884846958634207 0 0 0
218 2 8.533098699503824 7.20015404384765 12.156513516088946 0 0 -1
351 2 12.73095115622284 5.049575427256797 3.107204996367122 0 0 0
169 1 2.951922563355031 3.8614632415256316 5.959145437228998 0 -1 0
11 2 4.000317040384513 5.681883701109457 7.730005303723559 0 1 0
170 2 3.7440450187781984 3.5320752531174713 5.534399728931961 0 -1 0
353 2 9.776487403679795 5.5466267043502135 5.260250431707938 0 0 1
219 2 8.164165956161352 6.057567187178805 13.097154725151103 0 0 -1
61 1 8.075435542616344 2.531354487483491 2.6900366543983814 0 0 0
315 2 4.569884800659972 7.556449165654731 3.6561336197395087 0 0 0
92 2 3.15780393651778 6.087857443871842 3.3217532415567437 0 0 0
324 2 2.2524723518608867 0.3101154664709177 0.4115990462284273 0 1 -1
65 2 15.16071401626106 6.682389742949031 8.853141792882695 0 0 0
233 2 15.375095564056675 4.121478388499143 8.658990462279577 0 0 0
217 1 8.889790736319995 6.375068389604938 12.529497830290326 0 0 -1
257 2 16.88512083807941 6.75932661765004 7.766129302552988 0 0 0
38 2 18.443338767504297 8.425504008924804 5.720652789043046 0 0 0
94 1 14.01411812700842 8.221080768160665 5.434340608619949 0 0 0
54 2 4.618369688685269 7.229611471162586 10.799958140720113 0 2 0
128 2 1.025735683607846 2.0686966511037057 0.6407032446740093 0 1 -1
372 2 5.456114992043679 2.56379571438925 5.009811829018426 0 1 1
274 1 2.59767132899861 1.7198104819386184 3.281357187080302 0 0 1
140 2 5.042618415874463 7.4922067948820175 6.053694336722364 0 -1 1
100 1 5.979837979082008 7.109096254640191 9.824006374881517 0 0 0
63 2 8.823240602379627 2.668339357668315 3.2682965459876416 0 0 0
129 2 2.2182637904384737 1.9990327343483016 1.7054246512876312 0 1 -1
222 2 6.491292873392658 5.326554714961299 2.4417743802684355 0 -1 0
64 1 15.184773075576825 5.854067287196966 9.314935967391104 0 0 0
111 2 8.380153024757547 1.52685301058433 1.5252475410281843 0 0 1
13 1 13.870233815009957 5.529788965252283 4.418380607853034 0 0 0
62 2 7.751633466163045 3.404304044912077 2.50051946589729 0 0 0
332 2 10.785265395574914 4.959995943636485 1.5883576637945493 0 0 0
275 2 1.9842988255739367 2.4015303376206543 3.647131727321827 0 0 1
250 1 9.213836198719878 3.2957475854733325 9.539431031256596 0 1 0
368 2 6.130347162779192 4.0926326292180955 9.797494620724434 0 1 -1
102 2 6.296730432491244 6.212504950189383 9.750985400286543 0 0 0
349 1 12.476348296591755 4.975727125194178 2.115273707354979 0 0 0
81 2 10.506297001337146 6.812883949352825 13.218394773626258 0 0 -2
85 1 11.74082408970905 9.577607199763921 11.563815337626615 0 -1 0
302 2 13.385861860029678 7.006579167015792 11.671847130434523 0 0 -1
301 1 13.030414520691501 6.79095530025009 10.778427171247621 0 0 -1
103 1 10.883843695335283 2.8987520902195945 7.234210316656304 0 0 -1
6 2 11.226891383464082 3.4355983166346173 4.1195458373711356 0 -1 0
303 2 12.198521336900885 6.236068887307687 10.94822796466202 0 0 -1
305 2 16.554087703395762 8.659271821978104 8.587408442736182 0 0 0
239 2 18.71219318484421 9.2713076741883 9.196030015207098 0 0 0
171 2 2.7281183823479664 4.657081292749499 5.472531000232178 0 -1 0
333 2 10.433962822889246 5.543122362134117 0.2941026704790989 0 0 0
346 1 5.069778122788938 3.1202428029487854 10.301037994196554 0 1 0
110 2 9.021294794371645 1.4174192696726027 0.15290778233927707 0 0 1
331 1 9.969561038978359 5.034783555527298 1.0304295890479704 0 0 0
9 2 11.092037672039407 4.582665971722378 11.630600310366475 0 0 -1
4 1 10.880388218845798 2.663215263094184 3.6334170386402036 0 -1 0
8 2 9.930771875928507 5.653599655390842 11.494671045327493 0 0 -1
5 2 11.488805168198208 2.49102226124447 2.9169629301830375 0 -1 0
7 1 10.720812398103753 5.276701981020104 11.020289287389405 0 0 -1
377 2 17.283747473027052 8.88009400150478 11.85158057796746 0 0 0
112 1 14.996967178076517 6.358489814385161 12.811597531645194 0 0 0
304 1 15.981984976857216 8.14620742339102 8.024046954462529 0 0 0
367 1 6.974381687270506 4.569261660153105 9.447037339009974 0 1 -1
350 2 13.312483255138709 4.712310822303758 1.6949323319940215 0 0 0
113 2 15.762082549135823 6.041720961117262 12.380888770623178 0 0 0
376 1 16.99076161738722 9.42551225401039 12.59526917450654 0 0 0
114 2 15.231981905416124 7.24771154823445 13.231134596909872 0 0 0
66 2 14.405586111276499 5.95197931701044 9.82021642549219 0 0 0
14 2 14.57835065599448 5.094851336891206 5.004843946480816 0 0 0
296 2 6.348854134845059 5.901553525942139 6.664513785976724 0 1 -1
369 2 6.9112504440021985 4.676877866329561 8.46899039863869 0 1 -1
280 1 19.657880357136857 7.66008619566933 9.522419621684762 0 0 0
109 1 8.62715017339804 0.8351911768453851 0.7855491354838948 0 0 1
87 2 11.83998774669217 8.635539770884947 11.273223032645875 0 -1 0
184 1 18.888230279006063 6.0711468915552524 12.980285328188133 0 0 0
277 1 16.95218334460551 5.888328764209879 3.1606708266132393 0 0 0
93 2 4.48076261312933 5.6532641979529 2.4404852639108356 0 0 0
15 2 13.720299438959852 6.459762326148795 4.646282918053796 0 0 0
299 2 12.831723255212086 7.61897899976767 8.795653390000277 0 1 0
107 2 6.935049307502301 9.288539396349881 11.93463440532654 0 1 -1
160 1 16.64106549003475 4.227543164280786 11.51015589429473 0 0 0
17 2 16.683922052181877 6.62815555871449 10.3683525765712 0 0 0
37 1 19.068321403485424 8.04289728766271 6.37034476284759 0 0 0
18 2 18.08489941944508 7.170014250031955 10.177608397719442 0 0 0
231 2 12.941561883828495 1.5605792149989222 1.0586139616920274 0 0 0
104 2 11.691854931646965 2.366346248665065 7.537711633701277 0 0 -1
205 1 15.359618063165144 2.3026664871813805 2.785041298138048 0 0 0
210 2 17.700693509597144 4.392840511471876 10.172251072879751 0 0 0
186 2 18.365967729910164 6.433004570386023 12.253021059844386 0 0 0
232 1 15.472915700295744 3.2537786659175727 8.212051774674304 0 0 0
354 2 8.734323179692517 6.106325842138689 4.149944321495946 0 0 1
12 2 3.117249407568244 4.53386660082172 8.21035280276804 0 1 0
183 2 16.59891196263205 5.154460653830084 6.3723660591626015 0 0 0
40 1 21.40329866623548 10.032319217019536 13.154700574300076 0 0 0
207 2 15.362106707582946 3.108497056265509 2.204904191118126 0 0 0
208 1 18.45330516038243 4.480504399097653 9.511507162058772 0 0 0
279 2 16.414009777345978 6.647432317636421 2.865292082147835 0 0 0
254 2 15.337932301078261 5.2808969959211485 0.3732521390853675 0 0 0
181 1 16.214726599143145 4.499038783764841 5.6759966126811845 0 0 0
182 2 15.694240807994507 3.9392791829746105 6.226867655084048 0 0 0
256 1 17.538473799422892 6.101184510244717 7.395669415131708 0 0 0
255 2 14.515074976216368 3.9045159415469564 0.19494779730029008 0 0 0
253 1 14.905929119313473 4.504796332275437 0.8528730531590318 0 0 0
157 1 14.23870825872918 2.34719896466027 5.3917234593616845 0 0 0
185 2 19.6104303652143 5.6212879210981885 12.495048134017361 0 0 0
278 2 16.295896267502805 5.295332244959603 3.5274906744299073 0 0 0
159 2 14.362984593818478 2.3683898289648093 4.39629957866618 0 0 0
16 1 17.342411728775865 7.164579393984627 10.804719249580835 0 0 0
258 2 17.898900187315967 5.676385893893485 8.15976798265488 0 0 0
370 1 4.90694817003242 2.6265120825302195 4.166514761032243 0 1 1
80 2 6.5025677393805665 2.5431549358055787 0.44637668815310544 0 0 -1
306 2 15.713521587908932 8.83434889145068 7.37523049796077 0 0 0
79 1 11.372921364160192 6.948274908141738 13.60304195612913 0 0 -2
246 2 9.383486557997976 7.913439899987381 5.162513815994611 0 0 0
108 2 8.245092660915393 9.368987560549332 11.19629142228092 0 1 -1
300 2 13.272095078480724 9.139029687949701 8.562071372294255 0 1 0
221 2 5.878511398816273 4.160069917281452 1.401285631813596 0 -1 0
348 2 4.19738068871611 3.3621604032740113 10.684633004308038 0 1 0
251 2 9.791201816382102 3.876819238671936 10.096860570765012 0 1 0
139 1 5.141039005170767 6.998479963573312 6.8727110718756945 0 -1 1
276 2 3.4882880358754127 2.0041099853442845 3.5783290260241287 0 0 1
313 1 4.962757098758883 8.168578757475107 4.279986240156382 0 0 0
252 2 8.314326351673248 3.721822122027545 9.524675899878451 0 1 0
91 1 3.794787913557017 6.3840345971409675 2.5912081712996424 0 0 0
195 2 11.997867397781672 5.201883507173093 5.55014336308031 0 0 0
229 1 12.925914466127136 0.9826174230159022 1.8449512497341325 0 0 0
194 2 11.238747827729778 4.061969294513597 6.176808433277789 0 0 0
193 1 11.242263678315663 4.67049654246709 5.399458615768709 0 0 0
141 2 5.268247763307533 7.6707482489493675 7.590593848830436 0 -1 1
234 2 14.610754128826713 2.8786260453876555 8.151239581058272 0 0 0
96 2 13.66034669722351 8.088683595790748 6.34217595791856 0 0 0
34 1 11.838454745140737 3.341798214354905 12.709712889580084 0 1 0
380 2 11.530500082773031 1.568271821942632 4.787896849547779 0 1 0
158 2 13.397020381159734 1.8390717155994813 5.528393121615545 0 0 0
125 2 3.0778944658795666 7.246566354512436 1.587627321306416 0 -1 1
35 2 12.434542434291352 3.634629068111241 13.444312938174562 0 1 0
267 2 9.779708005218652 1.6933154407740079 6.42590613511363 0 0 0
266 2 8.255956674091731 1.6447732275969862 6.224560028463083 0 0 0
48 2 19.545042644955647 3.438285144617922 13.154466012144601 0 1 0
86 2 10.951099560867398 9.925735252721154 11.066727565917466 0 -1 0
226 1 13.702122032833074 11.43345024283237 5.600889063479074 0 0 1
77 2 10.73679255623442 11.028750550039328 7.224830626429665 0 0 0
227 2 12.77441189613609 11.359819908477292 5.998130981694208 0 0 1
82 1 10.784747487432242 13.464352973331032 9.17038802547603 0 -1 -1
166 1 19.29216033261416 11.15455877061555 12.125886166122976 0 0 0
228 2 13.81197503368826 12.277030102574999 5.141396330996504 0 0 1
330 2 11.928152980817345 10.3869159357513 3.4771850544233165 0 0 1
75 2 4.224953042294899 13.933752024940397 0.20122538464900783 0 -1 0
134 2 7.748679139291547 14.665432684291135 10.73235326826397 0 -1 0
120 2 18.550521411639266 14.008468451064914 13.565660929705087 0 0 0
176 2 11.642378096027866 14.885201745799499 11.792216387945446 0 -1 -1
294 2 9.42067584404807 13.370742041533912 10.12349075619975 0 0 1
270 2 9.854944094922057 16.289711113059894 8.894121188060387 0 0 -1
118 1 18.155494538131443 13.321564674492214 12.939199517020858 0 0 0
322 1 7.451281528337762 13.502623093492657 0.4819953287296727 0 0 -1
238 1 18.01707921933713 9.858216608650896 8.867585102932267 0 0 0
467 2 20.770002098495496 10.152158872926066 8.349025796095765 0 0 0
196 1 13.768864956708565 11.652034226335127 1.0545817313507282 0 -1 0
83 2 11.497240181805878 13.430320054651558 9.833487015026806 0 -1 -1
290 2 8.096472160785943 9.121998365546665 2.0471340044166664 0 0 0
334 1 16.415543704623243 13.2367940717846 7.507856832363213 0 0 0
285 2 19.100659689557858 13.871173949690597 2.3914612653418907 0 0 0
172 1 6.080967450937982 10.776548278377177 9.796277835824855 0 -1 1
147 2 13.297821579794384 14.10815737901869 10.904660844296242 0 -1 1
364 1 6.827035403002721 9.680995026610043 2.9526979894958143 0 0 1
320 2 8.84075373264707 13.661056360168294 5.632679884802136 0 0 0
344 2 14.962466089550059 13.024561406895677 8.18816819429475 0 0 0
242 2 3.6966302399563213 8.825479005447669 0.12361857142169165 0 1 1
288 2 22.402916445378974 14.713670157181642 8.565997001236385 0 0 0
249 2 5.06795364970722 10.481341647141495 6.432714671403227 0 0 0
465 2 18.156107983516478 8.464490663450125 1.4493826256104605 0 0 0
56 2 15.072271394676317 14.27920256577944 13.21264108170768 0 0 -1
168 2 18.89314236898652 11.969078480498894 12.486242925418747 0 0 0
245 2 9.190501223226494 9.475835689060117 5.279720934863133 0 0 0
145 1 12.45696393197031 13.753138752777101 11.281375179305705 0 -1 1
57 2 15.376023256977735 12.855100276422636 12.536807478417602 0 0 -1
328 1 12.125250014834993 9.60724397041416 4.002623407639098 0 0 1
199 1 7.8753766652953 10.740325470578032 4.981850744458277 0 0 1
28 1 11.235480624585318 11.84141937512908 2.197005285997264 0 0 1
336 2 16.681623649159036 13.883424370363574 6.829275303009882 0 0 0
366 2 7.363791363440511 10.256687390883902 3.631195648737072 0 0 1
287 2 21.627599992193492 15.949767780797488 9.18923838895645 0 0 0
224 2 12.17742420022331 14.113941290389565 3.806893828414097 0 0 0
55 1 15.21804422624481 13.30701358441844 13.34690120794357 0 0 -1
216 2 20.493404854537342 12.175240699500543 8.981162731093955 0 0 0
329 2 11.282960972672587 9.272931431964674 4.382585733009163 0 0 1
33 2 9.73137794628532 10.186837086930597 9.216098769019835 0 0 1
312 2 18.05046852655563 15.653630995564914 9.465328728425753 0 0 0
335 2 17.166241570337746 13.148195988076681 8.139727709328094 0 0 0
97 1 13.753561211584955 13.649044701737118 4.127196029433726 0 -2 0
268 1 10.078067997989045 15.763898589423142 8.078779333106798 0 0 -1
98 2 14.340620256663748 13.778298808657478 3.3754053687999304 0 -2 0
310 1 18.32309147445155 15.821289535843764 8.521489274369012 0 0 0
273 2 14.350070370774969 15.791527502276491 10.021568965986924 0 -1 0
197 2 14.183083806238955 11.242014900032624 1.8624338717585074 0 -1 0
241 1 9.487910595885218 12.858735183019743 13.129717021287222 0 1 0
345 2 13.541514360437848 13.220942776794601 7.503546966440135 0 0 0
319 1 9.31856691904542 12.976131312584382 5.192447475001337 0 0 0
272 2 14.383938708416881 14.30180581042088 9.302472910758857 0 -1 0
264 2 19.34859359091037 12.547799337135022 7.23543447293343 0 0 0
142 1 15.956352276699675 11.683582661447716 11.400678921014002 0 0 0
263 2 20.30801382963076 13.7763022609436 7.012454904997081 0 0 0
121 1 7.0317364031452785 13.132523974919444 3.0787896374310835 0 0 -1
269 2 10.521168596550254 14.97882252276616 8.432658988942698 0 0 -1
178 1 6.390987187503556 12.90744693519585 7.9878285929451724 0 -1 1
215 2 20.197729379855677 11.331647052361893 10.299884904308387 0 0 0
271 1 14.56155712625035 14.829196754935621 10.114547531616964 0 -1 0
262 1 19.821071771628834 13.269821744920776 7.688965943315836 0 0 0
728 2 20.73301764720069 13.41012521692544 3.7854390733615313 0 0 0
192 2 16.713568467279007 10.541828911727354 0.13525230059422277 0 0 1
214 1 20.779734175696213 11.378910986563113 9.51923743173937 0 0 0
240 2 18.309180704034585 9.971174815691384 7.8830440046047725 0 0 0
321 2 10.026779079548685 13.35046386957355 4.619541357448412 0 0 0
343 1 13.995107575657538 13.020511662649973 8.357986745536559 0 0 0
153 2 15.608795223753493 16.493901687781637 13.17217524937299 0 -1 -1
374 2 3.840142492798261 9.522755203873388 4.1687818297112935 0 1 0
291 2 9.428801550736218 8.930247313095721 1.0892665062842033 0 0 0
173 2 6.132465540123322 9.973704435049385 9.303623039768658 0 -1 1
51 2 12.47385198555886 8.214711563529347 2.634895991467267 0 0 -1
200 2 7.110011249560407 10.915581674316469 5.487962886369272 0 0 1
88 1 13.681150460623666 10.427002458399597 9.529356439197139 0 0 0
198 2 12.957920526330177 12.000553722584575 1.4777515261257443 0 -1 0
84 2 10.980327599426747 12.883453695327201 8.43769797754625 0 -1 -1
152 2 14.112468958344472 16.391658691038558 13.566453838155798 0 -1 -1
311 2 18.70922833733157 15.00905906018265 8.249653991671604 0 0 0
359 2 17.62725682381233 14.336966690619986 11.549198580528119 0 0 0
265 1 14.19703675753173 15.287278479204133 6.221869576454317 0 -1 0
1 1 4.794029789909754 10.905444335023722 1.712164953569115 0 0 -1
72 2 18.187928503575908 11.708762892145455 9.549752875439262 0 0 0
42 2 20.81121813217818 10.756142669008876 12.84924410232535 0 0 0
177 2 11.620279946257092 16.164374996705718 12.742038136774951 0 -1 -1
190 1 21.41555668374128 13.223423818748465 13.324015920413121 0 0 0
223 1 11.169901706361408 14.17590330875515 3.7422965277651015 0 0 0
191 2 22.118767735205836 12.863082228428567 12.723596776905664 0 0 0
382 1 19.989328293427004 16.55105938142762 12.491762760553543 0 0 0
19 1 17.30370483389786 12.546654455364365 4.422097206831851 0 0 0
20 2 18.03924870131623 12.68280509480434 3.7867845942580107 0 0 0
21 2 16.608340181482223 12.060271302143265 3.9477121306313716 0 0 0
379 1 17.137999919186967 15.028053369708978 5.375416468944713 0 0 0
43 1 21.430000176391736 15.13507340438932 6.348661265412464 0 0 0
381 2 17.08410407301323 14.263236546100117 4.819065116623252 0 0 0
67 1 15.021677419227142 10.61631703954041 3.1660831562951075 0 0 0
68 2 14.447790596456048 10.622218201052101 3.92999641232436 0 0 0
69 2 15.161839263765351 9.640672730780844 3.0057901896287476 0 0 0
119 2 17.29854162468146 13.104029804380016 13.373197759688106 0 0 0
146 2 12.688701441508005 13.01975299821776 11.874597207885245 0 -1 1
360 2 16.525233300049845 14.896388510894338 10.763190229303088 0 0 0
115 1 15.899905276181691 10.512451676403066 6.618037801840288 0 0 0
116 2 15.043962140322492 10.751457167785786 6.211807054504375 0 0 0
365 2 6.309189518204831 10.333015557222017 2.457464031903919 0 0 1
136 1 12.101530327777418 11.70285930541354 12.990951701950845 0 0 0
144 2 15.460192025527412 11.32327357201533 10.66071528083418 0 0 0
383 2 20.059472166929876 15.94262452476222 11.754475726954087 0 0 0
163 1 17.00788461977056 8.917467205851358 4.738732121475568 0 0 0
286 1 22.14971276919489 15.15071350077986 9.416000809278861 0 0 0
165 2 16.640930097695076 9.708221585266369 5.18280023477201 0 0 0
187 1 18.778192037780006 11.195408883980383 6.258172028271839 0 0 0
188 2 19.44305097228834 10.741800868066013 5.74143234071966 0 0 0
189 2 18.12924740985354 11.549473344348717 5.6324646717588545 0 0 0
30 2 10.66774476000964 11.81737390488385 1.4304488035175995 0 0 1
211 1 18.36472835211347 10.069997678579787 2.6600802695024455 0 0 0
213 2 17.66531883280583 9.690806119705686 3.185581986521661 0 0 0
235 1 15.56313408365616 8.309184001927628 2.2572947695641243 0 0 0
236 2 15.806421533349145 8.766727531707348 1.4270979356787912 0 0 0
78 2 10.524326282717794 12.380624394329281 6.407100811204907 0 0 0
260 2 18.056130959001734 12.237458617868734 0.22972765714617568 0 0 0
179 2 6.576130281193649 12.294730623130565 8.71285594911679 0 -1 1
259 1 17.42210780098348 11.86099470972719 0.8858009766682321 0 0 0
117 2 16.283495774058025 11.306708885642031 7.041721015771876 0 0 0
261 2 17.955180092465095 11.328052799892703 1.571851507683163 0 0 0
283 1 19.45613450689341 13.105648177445014 2.9389475833164846 0 0 0
347 2 10.62841158355964 16.683095047807495 11.00563055676116 0 0 0
74 2 9.574807664979701 16.05492680941099 13.14167459286409 0 -1 -1
307 1 15.83394963700098 13.582194970787965 1.9358023619885323 0 0 0
89 2 13.648948893218474 11.331799541021237 9.187799633207101 0 0 0
309 2 16.226738268234868 12.82496403457146 1.4147317014242173 0 0 0
29 2 10.954797183971657 12.723885289857156 2.62659320239902 0 0 1
49 1 12.938580597115163 7.737498684442577 1.9238051666968037 0 0 -1
175 1 11.044474138488212 15.607687471530832 12.164525426645003 0 -1 -1
326 2 7.2681516048420844 15.449613088937827 6.881791079867471 0 0 -1
358 1 17.439494532387602 15.121510611567519 11.013170674880113 0 0 0
289 1 8.730047286052905 8.458246679762356 1.6337459173554347 0 0 0
22 1 20.04981454298954 14.018643378484255 10.891402165819303 0 0 0
23 2 20.738842557993024 14.259820000900662 10.220183726548415 0 0 0
24 2 20.5060800964914 13.811738061601002 11.69310528375761 0 0 0
143 2 16.67687694933123 12.126478508632344 10.948241365151176 0 0 0
46 1 23.957900874896744 17.127954637616135 12.628212691292347 0 0 0
70 1 17.915074612265176 12.579068996117272 9.778770970942627 0 0 0
71 2 18.6971427612381 13.073204357144611 10.035436685596478 0 0 0
325 1 7.955735000154104 14.707958358043419 6.881584192570924 0 0 -1
130 1 10.369556069270548 9.553907725421995 7.866703899721467 0 0 1
151 1 14.918905139211933 15.837155107087588 13.47254182454429 0 -1 -1
201 2 8.332847430005778 11.624374184462804 4.8263366098723095 0 0 1
323 2 7.236870848848418 13.332216053480806 1.4097467218635242 0 0 -1
131 2 10.170054516954892 8.99540165456701 7.009239140776655 0 0 1
76 1 11.175732669203885 11.898365271703264 6.965187622893395 0 0 0
327 2 8.727559815060008 15.084821247606525 7.304933209431964 0 0 -1
32 2 8.975359269145322 11.37438491143525 10.081271118172346 0 0 1
293 2 8.92249714841278 13.014504363302528 11.52134797926511 0 0 1
243 2 10.351050502738087 12.402050312398162 13.326161922485586 0 1 0
284 2 19.853646041489274 12.526474586851409 2.2421511657914013 0 0 0
99 2 14.064271787957058 14.28769920710701 4.791971338085377 0 -2 0
384 2 19.509712132739377 16.066097976884453 13.25573756686166 0 0 0
2 2 4.576498014263683 11.863892680441124 1.5329849148969021 0 0 -1
122 2 6.10986380406282 13.028726864833445 3.3854954348226483 0 0 -1
248 2 5.932432743687316 11.762271323810094 6.825778984856092 0 0 0
314 2 5.7529903207724455 8.543051410661528 3.9067870787864862 0 0 0
292 1 8.583932020236706 13.201029518863349 10.637368235627626 0 0 1
180 2 7.097469741168854 13.497629896660271 7.7880636889884345 0 -1 1
123 2 7.233544408900355 14.018789227818017 3.381003077039965 0 0 -1
90 2 12.945032008923349 10.351705330228693 10.151834829311486 0 0 0
45 2 21.68316897120083 14.718997952781343 5.495345717758287 0 0 0
308 2 15.150501733156993 14.023707956132906 1.370518640324699 0 0 0
137 2 12.265611486020315 10.822476362197728 12.64416523112771 0 0 0
247 1 5.508944896560684 11.269258520817111 6.086892900821661 0 0 0
378 2 16.772008173610544 10.308198557472691 12.219443728561018 0 0 0
36 2 17.53967399436399 16.871343618664962 12.22124107068345 0 0 0
3 2 4.7759380699882135 10.496843199132334 0.8285746134346162 0 0 -1
375 2 3.761029640531733 10.542576593427057 3.0402559260105324 0 1 0
212 2 19.06134484670315 9.986051033293096 3.2848685151485193 0 0 0
138 2 7.595381912206778 8.244286053146762 0.26064219293255375 0 0 1
95 2 13.363202349686425 8.767133658219809 5.021027276478812 0 0 0
237 2 14.591682246744778 7.934210942751572 2.1429960219990196 0 0 0
73 1 3.8391515874034035 13.032141827824196 0.11481112984490499 0 -1 0
124 1 2.612507492667376 7.927218097902148 1.029576609864554 0 -1 1
244 1 9.841806554526816 8.786222840092806 5.473952277004529 0 0 0
31 1 9.28826947202359 10.408193272279426 10.093380195423645 0 0 1
156 2 6.556569134188604 11.700506612556179 11.65010198451586 0 0 0
167 2 18.773129491506793 10.405373129274981 12.528794058546934 0 0 0
230 2 17.246578826813767 14.51428835147851 1.7649342087992346 0 -1 0
132 2 11.26642190496046 9.273108069637521 7.989088497856565 0 0 1
44 2 20.620592578295874 15.690227901735119 6.108039486202043 0 0 0
225 2 10.897551999597873 15.06108387822022 3.5225253512783143 0 0 0
385 1 22.41191776250749 5.15800249564021 4.108518355852495 0 0 0
386 2 22.20893225373591 6.141108959560492 4.254631335513506 0 0 0
387 2 21.51693969820807 4.805334299573067 3.7458984269179108 0 0 0
409 1 26.19205126670652 8.126418917131723 6.1555213047172295 0 0 0
483 2 19.28000359557365 3.7600708132992127 6.443536895300218 0 0 0
425 2 36.89371324996085 10.185074800460972 12.789579087256982 0 0 0
338 2 33.5699680348604 3.0602368834663043 6.567701081618503 -1 0 0
433 1 19.962114724696402 3.7037321214710848 3.080052588853995 0 0 0
434 2 20.12159431327956 2.785109108475965 2.741767349712183 0 0 0
435 2 19.65783389726518 4.107759356873112 2.2616154114000966 0 0 0
602 2 20.897746525773886 0.7483738626045087 1.793281908994874 0 0 0
204 2 33.11597971328894 6.387501564232486 3.8320179179654734 -1 1 0
677 2 22.412354901402146 8.837413629098046 8.096388291368942 0 0 0
481 1 20.077883577836193 4.222345343786017 5.99457815968899 0 0 0
482 2 19.736565255733854 4.7652484497257355 5.286882541516495 0 0 0
650 2 25.069226865557166 5.990458433107135 3.326388992152937 0 0 0
505 1 17.69710939561948 2.6631234196290112 4.246374731965844 0 0 0
506 2 18.455055086161824 3.132908042300174 3.7852702871223514 0 0 0
529 1 21.67643046993925 2.256583345159506 5.152183046282654 0 0 0
530 2 21.21368369775425 3.0975701441070314 5.349799041499345 0 0 0
531 2 22.02435910491938 2.2329916133716803 4.272612388559309 0 0 0
553 1 23.9531642273393 4.284010372884341 6.11760566364212 0 0 0
554 2 23.352373480514338 4.560618007427463 5.318864051983671 0 0 0
745 1 21.73996867226435 7.551182306977042 5.112537379871742 0 0 0
577 1 22.973718295023936 2.329235718488336 2.560189614525125 0 0 0
579 2 22.877733355271552 3.2412217822405047 2.2131593741804774 0 0 0
601 1 20.248753060198847 1.5112201000390275 1.6251712855532812 0 0 0
666 2 34.69895692215784 7.567292577719728 10.344312076279015 0 0 0
603 2 20.3803153622822 1.6894591369978158 0.6957188958916021 0 0 0
410 2 26.914434558342965 8.609414272267495 6.6326575375825545 0 0 0
625 1 21.86212464824183 4.591480471313053 0.82219038289517 0 0 0
627 2 21.36423945253341 5.405809208280198 1.0057642572508982 0 0 0
649 1 24.470723874836565 5.9271364740753025 2.6214196632020483 0 0 0
578 2 22.921901178771428 1.8791608534478061 1.7029863502879252 0 0 0
651 2 23.610209725013444 5.590646683288021 2.9914481701152478 0 0 0
673 1 20.704598954267524 6.754819442460547 1.8993889136210407 0 0 0
27 2 36.2729267281201 5.320495389390914 12.809418100913794 -1 0 -1
675 2 20.26520141156342 6.723873362205202 2.8082704704772237 0 0 0
697 1 18.302126853502514 4.574832647353683 0.7709702565647547 0 0 0
593 2 32.2478924516421 4.222343441168599 10.040045638619423 0 0 0
699 2 17.820065943380396 5.100787866326252 1.4250697128052854 0 0 0
746 2 21.64249206534051 7.219391153578561 6.032749299272427 0 0 0
721 1 19.43753539967109 6.213821514846441 4.256741960471025 0 0 0
626 2 22.663946234264234 4.974419138898142 0.27700248015091194 0 0 0
461 2 17.81742952542657 2.172083458594145 7.19515995530913 0 0 0
411 2 25.86709673082335 7.477743898922287 6.829647188300839 0 0 0
678 2 22.73998436191886 8.400169254097092 9.443904940038495 0 0 0
388 1 24.811833838194538 7.021501545072372 10.773303079721725 0 0 0
389 2 24.65003484492137 7.940846506314164 11.079530322682988 0 0 0
390 2 25.287375309916598 6.562800450933635 11.510534893991478 0 0 0
412 1 28.817862009185237 9.875935655325343 13.13797337764774 0 0 0
52 1 35.91511911149688 7.071007839805954 11.469369615350109 -1 2 0
436 1 22.726109166831197 5.678076846243805 9.631381383369863 0 0 0
437 2 22.042206547554606 5.338762014862994 10.293548791063785 0 0 0
438 2 23.397461178493316 6.1846640587674635 10.16621394441405 0 0 0
460 1 18.595838229816348 2.644565529708793 7.3988246304364855 0 0 0
654 2 27.847007749677825 8.167260772413133 9.816946713639329 0 0 0
748 1 24.53975012600713 9.483250215159092 12.221528199093688 0 0 0
485 2 22.633728654022562 6.829776184461866 13.466958469363052 0 0 0
484 1 22.389030342680893 6.16416882645839 12.762768352268719 0 0 0
508 1 20.74145675042872 4.594794543149364 10.998628062996255 0 0 0
510 2 21.033454834490676 3.7811735034651837 11.497771677782334 0 0 0
558 2 26.662014745585118 6.761129421483328 13.309228299283657 0 0 0
532 1 23.820927989306067 3.8225849242852146 12.019303872123253 0 0 0
533 2 23.595877492404846 4.695472114554055 12.284969497386232 0 0 0
340 1 34.92667852148666 4.654917853848727 11.359275608892645 -1 0 0
556 1 26.28109120350036 6.013462519310015 12.734688441765973 0 0 0
557 2 27.05353375444265 5.67457803375711 12.24249794545392 0 0 0
580 1 25.60121844423743 4.171295261225991 9.758085574958733 0 0 0
581 2 24.884319175919458 4.002362267795391 10.399476315242334 0 0 0
582 2 25.341604991186337 4.985311414886193 9.31166403220636 0 0 0
630 2 24.65577253445409 5.379753828729905 7.021214490969071 0 0 0
604 1 23.00538640703768 3.352785253413751 8.556213841909264 0 0 0
605 2 22.873236648889062 4.2102412304955195 9.134210083227797 0 0 0
53 2 36.17553378596266 7.853225646009265 11.98579015860794 -1 2 0
462 2 19.30693865982866 2.031234117707185 7.764310076543069 0 0 0
628 1 24.972379907446307 6.1506029702339715 7.519608017045499 0 0 0
629 2 24.171432399545072 6.562102182641311 7.846432281168622 0 0 0
318 2 32.127425449927856 3.8886556611764194 4.292847960754362 -1 0 0
542 2 28.165168596242797 1.5339543473661932 5.152019576926257 0 0 0
652 1 27.146345663736586 7.818450121393228 9.218599712444295 0 0 0
653 2 26.492790547628687 7.443918352329016 9.860247762902349 0 0 0
676 1 23.181478297888564 8.5157225599245 8.602315211520994 0 0 0
738 2 29.137284946935427 7.475125053885221 11.359746793900518 0 0 0
750 2 23.82165451532892 10.039425044365954 11.906188076131055 0 0 0