LAMMPS data file via write_data, version 8 Apr 2021, timestep = 350000

768 atoms
2 atom types

-1.5332787170197677 31.47662566047424 xlo xhi
0.0016885527949870506 14.168544447205024 ylo yhi
0.08670128183831709 13.619021718161687 zlo zhi
5.1303317745946995 5.101735504178446 3.5394559116610904 xy xz yz

Masses

1 16
2 2

Atoms # atomic

96 2 14.133919603327314 7.489622684617735 6.210450592892938 0 0 0
54 2 4.389775503882477 7.555379539909939 10.665496477410748 0 2 0
295 1 6.77624065356216 5.0677185642962375 6.454745569859663 0 1 -1
297 2 7.469435690508467 5.387365059455677 5.903152327987014 0 1 -1
95 2 13.892184279792282 7.392013149095863 4.6585527416842565 0 0 0
220 1 6.721655874390217 4.494645514205683 2.9306514101431467 0 -1 0
371 2 4.959383917533264 2.578097336160293 3.113801248336701 0 1 1
169 1 2.3493632176074812 3.934660503784425 6.2930865651740255 0 -1 0
352 1 9.036287135999165 5.848975423192991 5.097619499912718 0 0 1
150 2 9.372899827553507 5.801437968763432 1.5910463714554295 0 0 1
108 2 8.729122411956581 9.360469981911116 10.471911771563772 0 1 -1
101 2 6.80603367208878 7.282005781794818 10.145690158760326 0 0 0
306 2 15.010581611730869 8.656727275207361 8.181906755871509 0 0 0
148 1 8.579609541927628 6.223465015185005 2.044072642450094 0 0 1
246 2 8.972503968527823 7.5120834388394515 4.9523402028905705 0 0 0
105 2 11.054184653082146 3.447968585207544 8.296462820755085 0 0 -1
171 2 2.1831399882575786 4.4707439546225 5.522206295202673 0 -1 0
106 1 8.059639933300554 8.80569183744043 10.886734912677667 0 1 -1
27 2 0.736200546511284 5.48119221354106 0.35528573832426036 0 0 0
324 2 5.946888902978467 4.674556596378401 13.499837901889636 0 1 -2
58 1 4.959646867491072 3.0335356630778176 6.337799189029871 0 1 0
59 2 5.513411656775906 3.885912272072741 6.402963501155228 0 1 0
275 2 1.368697937374261 2.308285043263447 3.765027246809418 0 0 1
161 2 15.989098098847643 3.160148250608103 11.905563718214545 0 0 0
127 1 1.664094416483287 2.362932377370418 0.5386745877907304 0 1 -1
85 1 12.023921589915771 9.299633592352167 11.08962400527244 0 -1 0
131 2 6.61500710106035 8.494377099973898 8.426668255332912 0 0 1
218 2 8.839408126603413 7.451516720609265 12.07236773095285 0 0 -1
351 2 13.154553735332977 5.070506285331092 3.4270622039352245 0 0 0
149 2 8.296407440086494 6.98830373831443 1.4807290744420334 0 0 1
11 2 3.6921722374311927 6.436077233990506 7.686143430655889 0 1 0
170 2 3.269223046857602 3.5710930259816687 6.325339275940218 0 -1 0
353 2 9.950078447155477 5.5971246567928015 5.389748639814973 0 0 1
219 2 8.252314042333982 6.363524977721188 13.068957584621684 0 0 -1
61 1 8.235589329099222 2.2807907359650472 3.135885210692517 0 0 0
347 2 5.040258331956743 3.317439474739173 11.579394977838524 0 1 0
92 2 2.0955555027916923 6.113893898967074 2.3328614003596435 0 0 0
162 2 17.465608179107566 3.4148043022552206 12.297632257336776 0 0 0
65 2 14.489305486423978 5.725308969683329 10.189355727171227 0 0 0
233 2 15.54228239790203 3.760567905097442 8.931476429666684 0 0 0
217 1 9.074192344073397 6.692229272818575 12.654595924432874 0 0 -1
257 2 16.619754220435354 7.137514731276326 8.07826835833379 0 0 0
322 1 5.494884602292364 3.7548447732481613 13.510077558250883 0 1 -2
282 2 19.945218334152525 7.22876213195173 8.922796262296242 0 0 0
94 1 14.559261753866236 7.31604289611461 5.3337897550967925 0 0 0
128 2 1.1443117906166833 3.213600540155362 0.5077950122656729 0 1 -1
372 2 4.467818528982219 2.4168483124829065 4.629288513494169 0 1 1
60 2 5.195431568998343 2.5137986842888465 7.143928459677126 0 1 0
140 2 4.458870359895302 7.464141493320993 5.816892827314056 0 -1 1
100 1 6.027812015403203 6.8970777471832285 9.669211736103064 0 0 0
63 2 9.113458253116882 2.5484676580082146 3.5443719419749176 0 0 0
129 2 1.8290526152724622 2.177619997112843 1.505675716594287 0 1 -1
222 2 6.021643220016474 4.55888750445663 2.2400128218246897 0 -1 0
64 1 15.391256412821607 5.532600002788523 9.863789155219507 0 0 0
206 2 16.567824186533013 2.7717513422398423 3.039100633819804 0 0 0
13 1 13.767243935641888 4.836289907153598 4.968498991673997 0 0 0
62 2 7.623347634893905 3.0800679455040463 3.129653510249396 0 0 0
332 2 11.450457906800047 4.859562502430947 1.2432275334379708 0 0 0
276 2 2.759564630474069 1.7201245589451806 3.427383728401217 0 0 1
250 1 9.622492810930327 3.7498472798523377 9.611607558297859 0 1 0
368 2 6.176727467080937 3.9191324606040436 9.563799301812306 0 1 -1
102 2 6.237967773023156 5.944771455679565 9.518672569106936 0 0 0
349 1 12.80010899886131 4.940288449909163 2.5415200651791667 0 0 0
81 2 4.700801596284755 4.293283932258385 0.4390871155097198 0 0 -1
107 2 7.591504844798118 9.376095737566107 11.566358864171395 0 1 -1
302 2 13.898393133261138 6.6970439622171885 12.005453667119937 0 0 -1
301 1 13.254307493622107 6.895333934878451 11.282324672482744 0 0 -1
103 1 11.2946960312276 2.8589711585451254 7.562817987197799 0 0 -1
6 2 10.940062583037916 3.540514415784515 4.733100357828557 0 -1 0
303 2 12.51086395037388 6.22402367937357 11.398148538712155 0 0 -1
109 1 8.485724254622903 0.9197951543272493 0.954901294347429 0 0 1
158 2 13.676992787397685 1.5705731298988466 5.055452653776462 0 0 0
267 2 9.26910965945577 2.5368487378901072 7.2510157908842885 0 0 0
333 2 16.24325980038401 8.916381378043218 13.34498419452895 0 0 -1
111 2 8.247659281975182 1.418131864105091 1.835645932366586 0 0 1
110 2 8.991732303417704 1.5043095112640494 0.37503199180022434 0 0 1
331 1 10.793650420779793 4.780948679619457 0.5447435415238169 0 0 0
9 2 11.184600735391223 4.44408778278379 12.086739746119505 0 0 -1
4 1 10.802124532286824 2.755191153790108 4.143283979245045 0 -1 0
8 2 10.46010760340037 5.7705923182097 12.025710879680055 0 0 -1
5 2 11.316577785044638 3.064892549802114 3.3685092782397956 0 -1 0
7 1 11.070008837783472 5.226346877752439 11.506368551020206 0 0 -1
377 2 17.150866894875698 8.621689519256455 11.60169770310978 0 0 0
112 1 15.26084781093744 6.027804623867396 12.99504692983628 0 0 0
304 1 15.98506516989555 8.556829621527365 8.464708684619236 0 0 0
367 1 6.993143080505693 4.325642257502901 9.190030585578329 0 1 -1
350 2 13.548729725101959 4.845831153634896 1.8977755633725237 0 0 0
113 2 15.982983521965599 5.467438627797128 12.60724840509495 0 0 0
376 1 17.013930501447664 9.475371329005583 12.127265069823459 0 0 0
114 2 15.643876443860174 6.847216590475841 13.380434121544573 0 0 0
66 2 15.82840120782774 5.197678338726853 10.664098210779816 0 0 0
14 2 14.204050085604507 3.986832895034095 4.932815570599196 0 0 0
296 2 6.206575761431964 5.8603836315208815 6.554234703470997 0 1 -1
369 2 6.956869487550499 4.40344375922064 8.204968986020859 0 1 -1
280 1 19.530596363150092 7.83652144742485 9.619384885976094 0 0 0
234 2 14.794911581007186 2.4276725028350645 8.608116590494744 0 0 0
87 2 12.58565444160689 8.477939082580466 11.24990414830321 0 -1 0
184 1 18.926438180173747 6.0727443228454066 12.890886680056827 0 0 0
277 1 16.909342972849966 6.051938672226581 2.6525558198678785 0 0 0
93 2 3.530910068388812 6.057368855412328 1.7948826577683492 0 0 0
15 2 14.328310861975874 5.654024157600243 5.252065771285519 0 0 0
50 2 12.572842434761471 6.79082076246382 2.8475603192281485 0 0 -1
39 2 18.576720088037355 7.2026967058157485 6.845569741333566 0 0 0
160 1 16.739300750372482 3.8459829529432064 11.76774047485641 0 0 0
17 2 16.663791459589348 7.176373451400617 10.375103484134257 0 0 0
37 1 18.963880370139403 7.868262971530241 6.222134421572587 0 0 0
18 2 18.279388105622797 7.285344859722763 10.345919403464999 0 0 0
231 2 12.994439658443808 1.5073481116620822 1.468874852965279 0 0 0
281 2 20.299746920025076 8.119545507969953 10.208987036954461 0 0 0
205 1 15.772316764890233 2.5592019220966935 2.5874877199060586 0 0 0
210 2 17.79042610807365 4.091693625762556 10.240019492250806 0 0 0
186 2 18.177228335915707 6.2152272171212335 12.246583394492298 0 0 0
232 1 15.677924540578568 2.919590785470819 8.495567573702214 0 0 0
354 2 9.01761867478914 5.689163129560671 4.129774390225836 0 0 1
104 2 12.14483468720333 2.473536892586694 7.759359027926246 0 0 -1
183 2 16.828940810808103 5.263286300456537 6.57647140865569 0 0 0
40 1 21.50041718066837 9.880698798794844 13.280948585424175 0 0 0
207 2 15.598420308481925 3.2831032455799747 1.941795913760797 0 0 0
208 1 18.51546684994971 4.316245155429733 9.64868513394911 0 0 0
279 2 16.542681040510143 6.833166193177215 2.1729990492793814 0 0 0
254 2 15.528557698443569 5.006847946481388 0.3682531951770805 0 0 0
181 1 16.533396467412373 4.459815148181104 6.065293723965157 0 0 0
182 2 16.10856680841681 3.950511197647964 6.748774935126672 0 0 0
256 1 17.260958586838296 6.418035808174498 7.763152564944384 0 0 0
255 2 14.485362823740774 3.873286524905148 0.20866297880714435 0 0 0
253 1 14.894080703281487 4.462605818450488 0.911248566612603 0 0 0
157 1 14.373883252101658 2.269097568622037 5.006067759451577 0 0 0
185 2 19.62457777629086 5.562577045403056 12.494541278258076 0 0 0
278 2 16.114322073213916 5.753412602229846 3.0996563918446935 0 0 0
159 2 14.813254212479505 2.2405498283412233 4.078074597494868 0 0 0
16 1 17.44574093299375 7.276415587908396 10.948904709439296 0 0 0
258 2 17.435569902526716 5.865011890604465 8.516502481644574 0 0 0
370 1 4.516961955930739 1.959564538894333 3.7791754767929486 0 1 1
80 2 5.238218924904123 5.766445959886312 0.43070423479117187 0 0 -1
315 2 3.9615502528339435 7.93063575559602 3.617935758442387 0 0 0
79 1 4.863735043054147 5.041745905492828 1.0108980683754947 0 0 -1
346 1 4.816146249036208 3.203691966611879 10.657784835441667 0 1 0
141 2 5.54471227002503 7.761993257700749 6.9610073290668275 0 -1 1
12 2 2.609047361405301 5.27637377193283 7.737022785278773 0 1 0
266 2 8.10223126614157 3.1820816815054234 6.429917154189756 0 0 0
348 2 3.9685578262118164 3.7307002267618956 10.676422352002312 0 1 0
251 2 10.09604161461824 4.417892181876337 10.187235381948637 0 1 0
139 1 4.919569979135938 7.137259237346908 6.608904778654336 0 -1 1
274 1 1.8228566025041628 1.6148307580794714 3.2203798479445007 0 0 1
299 2 12.986840956367395 7.687343111463233 8.733099508652963 0 1 0
252 2 8.68674748383488 3.9586659735007754 9.690247562701519 0 1 0
91 1 2.9542307902524345 6.671877761829826 2.255359748713093 0 0 0
195 2 12.451853118074386 5.023951128568991 5.540072385295286 0 0 0
229 1 12.999933866274601 0.7827583537689502 2.110486376740993 0 0 0
194 2 11.371287492419883 4.251864800633635 6.472989219714613 0 0 0
193 1 11.47311971650725 4.9741161701117464 5.790283273884663 0 0 0
38 2 18.16208985104182 8.346272668437857 5.914860283343073 0 0 0
265 1 8.312427662715754 2.4454627627974395 6.990779631124402 0 0 0
25 1 0.6744559880147314 4.886186618915259 1.1047522500281792 0 0 0
221 2 7.41719495151481 5.069716654779089 2.516431292059097 0 -1 0
209 2 18.58381874864078 3.667254905467685 8.936272900931664 0 0 0
298 1 13.355989061896434 7.969110523468397 7.914030290183661 0 1 0
86 2 11.441904810064559 9.049375755163416 10.282852602800176 0 -1 0
44 2 15.799823195543171 1.6522709337018533 5.904934827404748 0 1 0
300 2 12.665668355142566 8.615085088183159 7.5013836258699556 0 1 0
74 2 3.8012710989290066 4.2062639889708935 13.587647820619354 0 0 -1
154 1 6.295290082947341 10.156810076757221 12.30502014434974 0 0 0
137 2 10.98869117988821 9.966076930912967 12.219080719172078 0 0 0
239 2 18.42360774033857 9.342142717726102 9.090431347522365 0 0 0
42 2 20.72374422725155 10.338459630832244 12.834295271668493 0 0 0
49 1 12.967483302549642 7.58847387513959 3.228221035875907 0 0 -1
41 2 22.13647054672098 10.520741502944443 13.582179524418285 0 0 0
226 1 12.659380524886995 10.141498392715038 6.2878525532979905 0 0 1
90 2 12.883726473441461 10.821372181044712 10.232868870159496 0 0 0
227 2 12.279790377453802 9.977479981984532 5.393056462178785 0 0 1
82 1 11.475691121680986 12.232992046062906 7.601190594806287 0 -1 -1
166 1 19.310773818909208 10.816881737013443 11.944270886930934 0 0 0
228 2 12.279923934606128 10.987026816764056 6.688591915192894 0 0 1
330 2 11.297000911816617 10.369040581392815 3.322475942536189 0 0 1
130 1 6.363051514077361 9.240657613151521 7.853998516029606 0 0 1
77 2 9.201057331895761 9.657875054087482 6.368363461468942 0 0 0
120 2 18.038639611667815 13.813729527866355 13.56183584475522 0 0 0
176 2 12.418030934748142 15.315928829431796 12.362142592122 0 -1 -1
294 2 9.269097105576583 15.655433335003133 10.414523500108363 0 0 1
177 2 11.804278871885534 16.561717024189516 13.17976459195682 0 -1 -1
118 1 17.72901653364601 13.28712854531174 12.753479267262907 0 0 0
247 1 4.45743100304645 11.251136191256807 5.742898333550485 0 0 0
238 1 17.995423473100608 10.144454170780849 8.761939817456492 0 0 0
225 2 10.326769872501062 14.456957617709842 3.91997407560451 0 0 0
196 1 13.729213247792773 11.463651542855656 0.8859705643604155 0 -1 0
83 2 11.94995391649957 13.002621395486877 7.274164533924981 0 -1 -1
290 2 7.036254260040964 9.021133641525763 1.2099733079314239 0 0 0
334 1 16.215187281563555 13.466216642077471 7.782806989863194 0 0 0
285 2 19.41364367762939 13.604637138445241 2.3027665178767243 0 0 0
33 2 9.647948854971462 10.438052051865538 8.651694522090938 0 0 1
147 2 13.281468797426246 14.846237991100194 10.403016058777384 0 -1 1
364 1 6.459551271622791 10.97431023339915 2.1574617358188775 0 0 1
320 2 8.395681331631788 13.533940138253097 6.646835990555556 0 0 0
344 2 13.287475287744138 14.123421177829659 5.291647837142433 0 0 0
242 2 10.096228113865868 12.02546440792935 11.974983969482066 0 1 0
1 1 3.3140046517543476 11.025187993470162 1.8584287078136112 0 0 -1
167 2 18.46189289920971 10.247872184427491 12.020424964660496 0 0 0
269 2 12.069617055373692 15.714111900130845 8.160839258617212 0 0 -1
56 2 14.977617031392759 13.660822013936494 13.44579970555646 0 0 -1
168 2 18.87490539912182 11.652267525622607 12.219425282664403 0 0 0
132 2 7.204620819668303 9.625371601348789 7.493768378845371 0 0 1
145 1 12.610616453018626 14.483966973900468 11.052282162416091 0 -1 1
57 2 15.291494893048556 12.40920387401687 12.473185522184938 0 0 -1
328 1 11.415601177472668 9.58651002664423 3.9202814327637157 0 0 1
199 1 6.544242175132064 9.754221465214046 4.623367171935793 0 0 1
28 1 11.499639095675363 11.901758244709892 2.4322567699489253 0 0 1
336 2 16.659891428496216 14.02314135145204 7.1300501633543805 0 0 0
366 2 6.370381571084744 11.89711320811555 2.5538131734485745 0 0 1
287 2 22.056818015962335 15.753959007593023 9.046969409438136 0 0 0
31 1 9.872500978582227 10.401416502238952 9.6091674906869 0 0 1
55 1 15.059245020894698 12.694092717758274 13.402396832925048 0 0 -1
216 2 20.676836664318717 11.724018744280007 9.038651995154336 0 0 0
329 2 10.521717444723713 9.353288930633378 4.170495053960538 0 0 1
32 2 10.017018916098868 11.3164010789998 9.933269245977376 0 0 1
312 2 18.014289053332128 15.236335330493102 9.466573897228766 0 0 0
335 2 16.899554175802525 13.259435921173072 8.464720005917309 0 0 0
97 1 14.42981472469597 13.489134473979659 4.006383447270836 0 -2 0
156 2 5.942474041831238 10.484328420953002 11.43938387849119 0 0 0
98 2 14.748474819104809 12.920466279098182 4.724554439608389 0 -2 0
310 1 18.441877195765578 15.48982944560602 8.591525448632963 0 0 0
34 1 16.926182125582606 17.144306027565296 13.073683310292015 0 0 0
197 2 14.373528893638099 11.234767124633438 1.609441216666315 0 -1 0
241 1 10.072848079664077 12.685365360409959 11.23889481259037 0 1 0
345 2 12.84770302638168 15.24722919761154 6.201324155875439 0 0 0
319 1 8.93637149750044 12.902337737330472 6.210676351645614 0 0 0
272 2 15.02580071319377 14.762178128036508 8.751113858242189 0 -1 0
264 2 19.826496653506176 12.798447063681325 6.889307922606621 0 0 0
142 1 15.715982514928095 11.542029053816519 11.098997469538315 0 0 0
263 2 20.684677346048872 13.966889527512716 7.311293431157476 0 0 0
121 1 5.6364782199396934 13.45710172838348 2.5819846730306257 0 0 -1
244 1 9.12889536177642 8.484751211923024 4.977830444835067 0 0 0
2 2 4.217604682623001 11.29032647011811 1.6476217621293692 0 0 -1
215 2 20.309732977010146 11.087022444526285 10.489025050659626 0 0 0
271 1 14.6745522622088 15.21352368978144 9.530656931538571 0 -1 0
262 1 20.169749837850798 13.212509606476535 7.672556900022982 0 0 0
273 2 14.732202211945891 16.15336804965507 9.341969272156387 0 -1 0
192 2 21.988514794773884 13.593837780977069 13.486759652912852 0 0 0
214 1 20.898001922907447 11.072836335187628 9.707613760552508 0 0 0
240 2 18.223546927525366 10.306219206540593 7.809322634764058 0 0 0
321 2 9.450578601322942 13.136147696557654 5.3964221804868995 0 0 0
343 1 12.51975762010015 14.34376007139521 5.851713400092883 0 0 0
153 2 15.56178958571135 15.959998875135035 13.488621710796224 0 -1 -1
224 2 11.273773609522548 13.90877432124834 4.8688222271800505 0 0 0
291 2 8.280687500767131 8.990060665952113 0.30434649551887877 0 0 0
308 2 14.983912443890555 13.661946778654952 1.1215892702135388 0 0 0
36 2 17.45504253363772 16.820112291890048 12.291661726795779 0 0 0
200 2 5.967800662319984 10.254972966084745 5.179696459813945 0 0 1
88 1 13.040078941093281 11.787138435162761 10.24443113814467 0 0 0
198 2 12.983821120443832 11.98251272031645 1.290216765467807 0 -1 0
84 2 10.548298515349918 12.364710892641563 7.38207963184957 0 -1 -1
152 2 8.887893317630324 12.163716041228 0.31178855633216546 0 -1 0
311 2 18.829399165782576 14.68504242624873 8.295507419204133 0 0 0
359 2 17.504279634265675 14.372130426541343 11.587677050965427 0 0 0
313 1 4.130714365195818 8.30538822810179 4.488144727077647 0 0 0
326 2 6.801783240157615 15.307380065099332 7.751855039245148 0 0 -1
72 2 18.02497773078373 11.69024740197605 9.355579497655162 0 0 0
384 2 19.378476753965316 15.884202497257894 12.83241966361723 0 0 0
172 1 5.35108001021676 10.762431648972095 9.877971668618374 0 -1 1
190 1 21.418808140752887 12.984225294367345 12.984893820796755 0 0 0
123 2 6.249342570838522 14.111340863044083 2.826879837247959 0 0 -1
191 2 21.98766578705804 12.53520879250679 12.307262972480764 0 0 0
382 1 19.72557687021592 16.52239537466464 12.113947028750207 0 0 0
19 1 17.239531113803682 12.351581928265128 4.192021767886042 0 0 0
20 2 17.94977158080083 12.620945921075796 3.6143784865002155 0 0 0
21 2 16.588438163107337 11.85098004861292 3.69121773532891 0 0 0
379 1 17.37355536459432 14.708957661987087 5.354239296578783 0 0 0
43 1 21.613006675521625 15.27094466159381 6.4126720600061065 0 0 0
381 2 17.155853277840574 13.874183990771423 4.852790281234342 0 0 0
67 1 15.535957483378079 10.685374352395337 2.863796556528589 0 0 0
68 2 15.093134586021298 10.666747360542978 3.676466096853494 0 0 0
69 2 15.4649710375194 9.723534878364283 2.5044320281491474 0 0 0
119 2 16.83107142932359 13.026076979071474 13.030671158000473 0 0 0
146 2 12.9281627229073 13.546509083219233 11.004349543745418 0 -1 1
360 2 16.375553418237406 15.11923379215881 10.915492694945081 0 0 0
115 1 15.074209577678714 11.456160867243788 5.965648037933778 0 0 0
116 2 14.241278427888721 11.019051779205208 6.241230722329902 0 0 0
365 2 6.6474402211786785 11.146112404932891 1.2525598691242543 0 0 1
378 2 16.48192789519827 10.098582319024079 11.56297963985777 0 0 0
144 2 14.826485937479402 11.613107432376513 10.663980051671981 0 0 0
383 2 19.83398932756851 15.887258783008274 11.353153468474765 0 0 0
163 1 16.76251572146919 9.085175241089074 5.216983982290407 0 0 0
286 1 22.382536085337907 14.930539868252117 9.347863700938674 0 0 0
165 2 16.51928674223195 9.984273686011424 5.4128867313778875 0 0 0
187 1 18.708267686229174 11.317168043421313 6.369603681479739 0 0 0
188 2 19.397155886115353 10.669838348700218 5.939836989733656 0 0 0
189 2 18.18716077623401 11.735389885465613 5.659278898746657 0 0 0
30 2 10.75091938384182 11.979194307264464 1.8231267906660151 0 0 1
211 1 18.14751451317324 9.751839174002294 2.703878490057194 0 0 0
213 2 17.45683368485384 9.473864250426566 3.3285719021518485 0 0 0
235 1 15.44887500737257 8.297345279748434 1.8514737624894249 0 0 0
236 2 15.639682210287583 8.476912396727826 0.9172120924071999 0 0 0
78 2 8.803708326235617 11.264367545958502 6.473941994738938 0 0 0
260 2 17.99958592774574 12.166923035128933 0.45881785425873844 0 0 0
270 2 11.233731639458476 15.078137997156038 9.26891584271032 0 0 -1
259 1 17.47830807153523 11.371014868532772 0.6804290336558712 0 0 0
117 2 15.39065581720361 12.086481127778516 6.69215077072797 0 0 0
261 2 17.79468338954 11.068992576317482 1.563487655944651 0 0 0
283 1 19.748700712743993 12.695846145063971 2.6351799228657473 0 0 0
136 1 10.601481920003028 10.53018793064967 12.961224928383212 0 0 0
237 2 14.531521496315781 7.987109079186391 1.994199481698158 0 0 0
307 1 15.812821059817415 13.554804197117212 1.621843547308771 0 0 0
89 2 12.575799432130811 12.089456367729959 9.44097162443502 0 0 0
309 2 16.188457598660396 12.69301148414036 1.3579944230146868 0 0 0
29 2 11.244911582947124 12.46263739822682 3.1890608754674528 0 0 1
3 2 3.0723468435278583 10.212585177740289 1.3349924292641433 0 0 -1
175 1 12.278974464304339 15.676774101158465 13.2599288832193 0 -1 -1
212 2 18.978053680423717 9.898701349328606 3.2536780048998057 0 0 0
358 1 17.324498622618258 15.2044351782753 11.088584266770912 0 0 0
289 1 7.395557974626854 8.522880070679753 0.4932549624262144 0 0 0
22 1 20.09579770562799 14.171798235926383 10.528795587249434 0 0 0
23 2 20.953918139052114 14.373467627754039 10.051801480231926 0 0 0
24 2 20.407598912764726 13.930568151976802 11.446064227582534 0 0 0
143 2 16.392418636294522 11.967695289568283 10.522174857450029 0 0 0
46 1 24.046906418661198 16.888992262578384 13.12932292330864 0 0 0
70 1 17.910649311923457 12.593047749169516 9.771159282707936 0 0 0
71 2 18.72396081171511 12.955675269974225 10.098199238533825 0 0 0
325 1 7.315797189110027 14.493050679346892 7.783818420009541 0 0 -1
223 1 10.57888116553406 13.589811415255292 4.267505843469644 0 0 0
151 1 9.802746674903325 11.755066736583029 0.30621313086094126 0 -1 0
201 2 6.6741405980360415 10.318892123218697 3.8002183851595817 0 0 1
245 2 8.23714805478424 8.907084590292591 4.810404606846782 0 0 0
155 2 6.652409382223549 10.962887785429938 12.798707866910803 0 0 0
76 1 8.914833320718513 10.406805340637176 7.003141112455367 0 0 0
327 2 7.914528037438757 14.567533150607549 8.55918147765545 0 0 -1
99 2 14.908625212355792 13.24305381958658 3.1941922567436216 0 -2 0
293 2 9.06122676137345 14.159304297981134 10.569624391588167 0 0 1
243 2 10.901463122620985 13.183778618593148 11.430412748173467 0 1 0
465 2 18.24922871064205 8.635249518774135 1.5162620220595462 0 0 0
51 2 12.220182184108017 8.172499221978699 3.4729151675796883 0 0 -1
179 2 5.316660785939751 12.110045678304944 8.712999087664718 0 -1 1
467 2 20.469640951234762 9.829426622061515 7.989382612019835 0 0 0
323 2 5.465157692127827 14.088440907945165 0.9113459855028919 0 0 -1
173 2 5.625550374478152 9.994838175785524 9.392046526508478 0 -1 1
35 2 17.544870912056492 17.692795225664003 13.563562395673344 0 0 0
292 1 8.729138425821846 14.911919783821867 10.11684004155688 0 0 1
180 2 6.1458750163589855 13.156825545383697 7.806684153769373 0 -1 1
138 2 11.440150818741033 10.978080688322189 13.195983645972888 0 0 0
314 2 5.0265369156511195 8.724740609521378 4.27624911400016 0 0 0
125 2 2.8246580746241228 7.942205915265375 1.1507927299939942 0 -1 1
122 2 4.832009086254917 13.551436278912654 3.1086656841106968 0 0 -1
134 2 7.105332697072729 15.078689065184502 10.86160826158936 0 -1 0
124 1 2.440031763750952 8.713033141828479 0.6462134842859473 0 -1 1
48 2 24.897517833348935 17.338980685898523 13.434459069384662 0 0 0
248 2 4.6611067950390535 11.806898884188175 6.510861450517404 0 0 0
268 1 11.177423719910838 15.446845221375158 8.368735718818542 0 0 -1
305 2 16.450125101171775 9.388408987332044 8.294305705332674 0 0 0
164 2 15.950636076002843 8.5287608761318 5.245015860619304 0 0 0
230 2 17.234021242231766 14.64606417979856 1.99092753843428 0 -1 0
178 1 5.276438381903365 12.642200558293718 7.917196583708382 0 -1 1
47 2 24.357378531298526 16.22793957950852 12.519999954106305 0 0 0
380 2 16.832285464922375 15.40341091654586 4.877458985377214 0 0 0
385 1 22.236668992748466 5.218011507758385 4.049095345159368 0 0 0
386 2 21.79960541774191 5.9975483793741775 4.448510093465334 0 0 0
387 2 21.578104868861715 4.747619407300677 3.532691636152076 0 0 0
409 1 26.521603921956046 8.196494760306368 6.100617503977992 0 0 0
483 2 19.576126231573372 3.759631178705165 6.572178165265559 0 0 0
722 2 19.437191349991696 6.771535366504491 4.840028927645937 0 0 0
338 2 33.95066735203054 2.9819032613741103 6.8212047304203445 -1 0 0
433 1 20.245903704127574 3.6577962830987865 2.8463895799506633 0 0 0
434 2 20.474774983691304 2.7815847820391033 2.5583418246623904 0 0 0
435 2 19.761230415333657 3.9713057046290356 2.071498440354083 0 0 0
457 1 16.21157689979339 0.7421306332778573 0.4663170785099137 0 0 0
204 2 33.230827217009335 6.049829177742249 4.178479460130607 -1 1 0
203 2 34.17634269880477 6.599748817033328 5.13275240176618 -1 1 0
481 1 20.250402739903507 4.407868257638654 6.229496466284572 0 0 0
482 2 19.856277831183817 4.852327082664456 5.435510953344673 0 0 0
650 2 25.010350062660493 6.100642472873323 3.4805263683788388 0 0 0
505 1 18.13826454126187 2.872535157288368 4.279697855088751 0 0 0
506 2 18.88168402086022 3.2720619024851527 3.72644093308459 0 0 0
529 1 21.850216336437192 2.3829579638011946 5.066882096737025 0 0 0
530 2 21.589918286728746 3.2458621963123555 5.472621759376621 0 0 0
531 2 22.43666592980969 2.620882599937317 4.287248681925702 0 0 0
553 1 24.13449254212632 4.415568225743112 6.2238708094611495 0 0 0
554 2 23.339936258424565 4.52211602049838 5.641388933909819 0 0 0
745 1 21.84726864087398 7.963286543713115 5.064475396834271 0 0 0
577 1 23.416876965981327 2.6259214748802813 2.8510982108917466 0 0 0
579 2 23.169893086545155 3.3590011047508654 2.261618199805004 0 0 0
601 1 20.49283121951177 1.28599250089287 1.6635389847644688 0 0 0
666 2 35.15564643637944 8.023007179106227 10.21275541293154 0 0 0
603 2 20.86094953358203 1.4941980585663743 0.7718158322432421 0 0 0
414 2 29.80606922817307 10.46429734656016 13.569384620574912 0 0 0
625 1 22.469250282816237 4.5284191474089095 1.0141589887371236 0 0 0
627 2 21.77612834998129 5.0909234778993895 1.2899990697615282 0 0 0
649 1 24.35868856487638 5.890619314459705 2.779243892471809 0 0 0
578 2 23.452905355120656 1.8295984549209656 2.19221936966912 0 0 0
651 2 23.563169458065463 5.499451977777543 3.2238942365245764 0 0 0
673 1 20.660009630160985 6.626817536108574 1.643391318682132 0 0 0
461 2 17.95347369083059 2.0657865393645394 7.109488489110066 0 0 0
675 2 20.284397527526316 6.500254582106323 2.5433179518483393 0 0 0
697 1 18.45741538572733 4.498064163099455 0.865405860508504 0 0 0
593 2 32.65449204335438 4.038078907674315 10.260894635441293 0 0 0
699 2 17.963871131649768 5.096976422150167 1.4972651639326104 0 0 0
746 2 21.887619311219147 7.461678861737931 5.924801733315652 0 0 0
721 1 19.39050915030943 6.0173927446710005 4.222078353136463 0 0 0
626 2 23.15258143243118 5.159788078569616 0.5952505203085038 0 0 0
723 2 18.415168840563283 5.93065286626507 4.010533164679247 0 0 0
411 2 26.011256324506604 7.775914528947572 6.856761974159611 0 0 0
337 1 33.4731505150047 2.4732586056709085 7.447306970464075 -1 0 0
388 1 24.909505405552526 7.04941300580082 10.698643259305436 0 0 0
389 2 24.449896080845594 7.90139666250565 11.0506259451513 0 0 0
390 2 25.24927295042585 6.692447042219398 11.550101467117296 0 0 0
412 1 29.13568241298435 9.907824444588327 13.091846754698391 0 0 0
509 2 19.749159125893406 4.521285428262372 10.464343802042304 0 0 0
436 1 22.539475294927943 5.550794766306196 9.666691049875176 0 0 0
437 2 21.772825530105763 5.41291337801746 10.242063566633977 0 0 0
438 2 23.278325061435552 6.023187580024181 10.105320613302759 0 0 0
460 1 18.67283608775584 2.5725975262880745 7.511408880906168 0 0 0
654 2 27.740588514605275 8.114915297627274 9.900266999624723 0 0 0
748 1 24.361854756202682 9.353427035872325 12.070467823655013 0 0 0
485 2 23.42293654299288 6.408007309832687 13.268610358682068 0 0 0
484 1 22.994919131515967 5.834701384895135 12.604602485598102 0 0 0
508 1 20.512576022929018 4.649478845939619 11.088610750139894 0 0 0
510 2 20.81285805261384 3.815363600295982 11.439098224630042 0 0 0
558 2 26.74784253824459 6.894352642774087 13.232760743592706 0 0 0
532 1 24.490238041148856 3.9626257796262316 11.593406883093033 0 0 0
533 2 23.932853524710907 4.670552358360144 12.037439872184777 0 0 0
534 2 25.13467353220758 3.628700218161505 12.220276088056828 0 0 0
556 1 26.27002380296894 6.16465062682402 12.798421108016692 0 0 0
557 2 26.951610853261652 5.6498769535587146 12.269385500106301 0 0 0
580 1 25.617494708018473 4.484025087432166 9.233483357915876 0 0 0
581 2 25.035075863147078 4.158836583543898 10.022706415298874 0 0 0
582 2 25.43173956255113 5.399576114868083 9.084572362318202 0 0 0
630 2 24.5349489653085 6.053475543369586 6.962989013988202 0 0 0
604 1 23.094321084306536 3.0728127531215836 8.60998355922128 0 0 0
605 2 22.80065553833512 3.831989321348203 9.095811409090844 0 0 0
618 2 29.697373837041564 2.4538214074332134 8.562069266561732 0 0 0
606 2 22.256199643027152 2.5291159300204407 8.461832143079109 0 0 0
628 1 24.81417587933702 6.801600248009076 7.457549628492932 0 0 0
629 2 24.05291564311297 7.286153919350878 7.682177976731328 0 0 0
318 2 32.421094973817084 3.6009407243902105 4.7460535107281565 -1 0 0
749 2 25.29683958520711 9.652431756223214 12.103905529451474 0 0 0
652 1 26.947325317092563 8.025241912392476 9.29310495975972 0 0 0
653 2 26.187954958963157 7.611107381098716 9.758931985519013 0 0 0
676 1 23.221955611407594 8.848892480101142 8.482275912121667 0 0 0
738 2 29.529302114643674 7.324422560212875 11.092865172296735 0 0 0
340 1 35.90700521050187 4.85038092661859 10.64594307334347 -1 0 0
700 1 21.06627163325318 6.539571517250547 7.67395839925661 0 0 0
486 2 22.369907335707104 5.2905417954449705 13.102900265038112 0 0 0
702 2 21.622292585305456 6.2899575687456695 8.467070312319562 0 0 0
752 2 19.193033522885514 1.4986403500838408 4.821166914101485 0 1 0