LAMMPS data file via write_data, version 8 Apr 2021, timestep = 43317000

576 atoms
2 atom types

0.002067786246398825 17.917933213757223 xlo xhi
-0.20293321375240855 17.712932213757277 ylo yhi
0.14706778624506792 18.06293321375514 zlo zhi

Masses

1 16
2 2

Atoms # atomic

391 1 2.24888103184475 1.044582090598587 3.637106166319409 1 0 -1
392 2 2.8519448575183843 0.5061239641974968 3.0995684698503285 1 0 -1
57 2 2.8806635775274447 2.4313162407453857 3.8874480539626592 -1 0 -1
55 1 3.3045922027069126 3.3633578557350727 3.989469678704163 -1 0 -1
177 2 0.5816325761027656 1.736778947584395 3.208645457006987 1 -5 0
56 2 4.286141850060148 3.120766462129611 4.09516356288778 -1 0 -1
307 1 0.29523537555898344 3.762228820481892 0.8731073067995415 -2 0 2
393 2 2.087434479127515 0.5298557125665881 4.494178195845066 1 0 -1
50 2 6.575325307937139 0.7187731181486232 2.0352810943722717 -2 0 1
51 2 8.051000680560554 1.101222899964362 2.277205645037439 -2 0 1
49 1 7.271266247319423 0.7600226479712572 2.7145681846979164 -2 0 1
195 2 6.370898807825797 1.9458088272486025 3.9117894014298025 3 2 2
451 1 5.452506303219239 0.18142449786445067 0.6600082374319759 6 0 -2
299 2 6.899908555720856 4.1180035423153285 1.0018914991156997 2 3 -2
542 2 6.660756773082732 4.27241695857332 3.439835138800942 -1 2 3
193 1 6.03213061928222 2.7209155256093087 4.348847657716639 3 2 2
452 2 4.725353979174183 -0.1874706709333438 1.2067078165150946 6 0 -2
97 1 12.3207062205494 1.5947665238552635 3.21941642819565 -1 3 0
98 2 12.525175842856488 2.529188008487931 3.015509201350184 -1 3 0
106 1 9.769419852932346 1.1669894884520189 1.638536214676127 -2 3 2
107 2 10.476697197938266 1.3293915464088488 2.319463891423088 -2 3 2
99 2 12.717240096038791 1.1738485607793392 2.431137951350501 -1 3 0
108 2 9.934827604049795 1.8466685340580922 0.9787236908999811 -2 3 2
123 2 12.55464731429161 0.7486362232074756 4.592053923498713 1 1 5
508 1 12.72755031284631 4.117927803701867 3.0153107384906725 -1 4 -1
456 2 10.110633705874696 4.134568262670721 0.544932629741874 0 3 0
176 2 17.82808406775157 2.5769242130098333 2.097837457866839 0 -5 0
490 1 13.520977489160183 0.6005806165256811 1.0211754382539349 -2 -2 0
277 1 16.093103717553433 -0.010769568860887119 2.135740447630449 1 1 0
175 1 17.62014744700832 1.9725618232426005 2.844585480164003 0 -5 0
245 2 16.882536765756335 3.286088033883338 4.085901940293839 -3 2 -1
279 2 16.72294084997278 0.7096617515626956 2.2165904018653784 1 1 0
492 2 14.422439805433621 0.36484405743510273 1.411334622157861 -2 -2 0
309 2 17.56758292204387 3.897402948828132 0.1793482994748743 -3 0 2
60 2 2.4550334382914003 4.371632311790277 2.6536399025873516 2 -1 0
58 1 2.204609870443567 5.17366346689263 2.1306231674315574 2 -1 0
59 2 1.7763591100279779 5.871563830305704 2.7031356831949744 2 -1 0
548 2 3.643957848612241 6.135466403610023 2.2301097990753687 2 3 -3
28 1 0.8697859912327369 7.125235167444942 3.136412128041586 3 1 -1
30 2 0.6842970871370438 6.7749723676353355 4.048501455624744 3 1 -1
547 1 4.446230363268076 6.696660060486628 2.100818817023864 2 3 -3
323 2 4.391854361763461 6.977048188548414 3.6660464908925974 -2 -2 2
29 2 0.13157040454698993 7.007026151334369 2.565985074582584 3 1 -1
308 2 0.7003974683787044 4.65403296253577 1.0776844004202195 -2 0 2
575 2 4.499357432311589 7.704957478312838 0.617181798694628 -1 3 2
549 2 5.119297312847422 5.990313670489532 2.185607270238709 2 3 -3
541 1 6.568982033536117 4.873743178014362 2.6568968078287294 -1 2 3
543 2 7.1865670030399595 5.668999919695897 2.791279985570828 -1 2 3
131 2 8.687502507932328 7.6425732884682915 2.8519667008567904 0 -1 2
130 1 8.702755545804775 6.627435609575041 2.917351478737411 0 -1 2
132 2 8.924789604594153 6.345697788679847 3.820339892882987 0 -1 2
95 2 11.27884806866515 8.426818032493976 4.217799824945168 0 -3 0
509 2 12.278615458773473 4.602816979027571 2.312132252902108 -1 4 -1
33 2 10.179253898104376 6.013288596504725 1.811676384883912 2 0 1
31 1 10.743839559133695 5.6257725891286094 1.1131513575846612 2 0 1
254 2 11.398535372468166 4.8695697900852934 4.490194874011442 2 3 -1
32 2 10.86632432109194 6.3212765405069185 0.40943882948775623 2 0 1
186 2 14.070130904815665 4.5804460066834 0.3758644970047517 -3 -4 2
510 2 13.656648969471213 4.438687144531727 3.118990632702789 -1 4 -1
291 2 16.187624675575055 8.43565824018366 0.8665073523421342 1 -1 -1
553 1 15.156981772779535 5.547227280081398 3.1425379997477902 1 -3 3
554 2 15.789456863981181 5.150601763999654 3.7734968175828603 1 -3 3
185 2 14.526827553120203 5.6572861928064615 1.4927094564817922 -3 -4 2
555 2 14.980709850598393 6.527899383054455 3.4517703230215884 1 -3 3
151 1 17.136149583999238 6.920574702542568 0.6919384409604257 1 -1 0
382 1 14.603853756036578 8.140342572288079 3.3932651016437525 1 4 0
384 2 14.847801223814024 8.617906407593718 4.220733856271826 1 4 0
383 2 15.067645401503848 8.574046139998858 2.5971987433342196 1 4 0
184 1 14.323869663877167 5.500187318382463 0.5411211605139876 -3 -4 2
152 2 16.445468373296436 6.230009781774926 0.6364992864620248 1 -1 0
212 2 3.6332736242326353 0.5641978656937937 8.435931051728595 0 -1 -1
564 2 1.6642354955275134 1.596435175381665 8.032744040958855 -1 0 1
562 1 0.7465889047494039 1.266343635699932 7.921125555455342 -1 0 1
211 1 3.4534326840170277 1.5121632114342043 8.109004538248206 0 -1 -1
222 2 1.056539287958695 0.18533146494215127 6.655082053101712 1 1 3
413 2 0.4922222382167999 4.177903309112355 8.10839828124571 0 -1 -3
563 2 0.5596953215658387 0.8607307359144606 8.795949409379254 -1 0 1
213 2 3.86088719318099 2.160709373818712 8.698073506149962 0 -1 -1
268 1 8.173113473299813 0.1730531586331394 6.599555674582301 0 2 3
194 2 5.915310637420218 2.386026690023603 5.275180755578466 3 2 2
269 2 7.311780072177504 0.551867077649754 6.732136311422445 0 2 3
39 2 5.058059696091318 1.3486873559008334 7.1954327253911545 1 5 0
37 1 5.863587495890567 1.7292992652176291 6.863574335015235 1 5 0
38 2 6.202697456383687 2.489670468590907 7.415125033493122 1 5 0
346 1 6.814875226085239 3.6444376415933686 8.575553826714678 0 -1 0
371 2 9.896464239219748 1.1209870399106932 6.6011767519172215 3 4 -3
558 2 10.80057122815268 3.045752695245663 7.165990164062681 2 -1 0
372 2 11.384461127864999 0.7759343269252527 6.322974060346672 3 4 -3
370 1 10.805811492825631 1.3535870017765348 6.862509497427354 3 4 -3
121 1 12.643568171004238 0.06927083941704534 5.261688407232175 1 1 5
122 2 13.384596306715132 0.19319425063714393 5.92272604908842 1 1 5
556 1 10.767327853310958 3.9708845142186204 7.438588164861585 2 -1 0
557 2 10.142694649354059 3.9133911018895056 8.21831443017404 2 -1 0
93 2 11.018747168430755 1.244181658491966 8.461243766274105 1 0 -3
244 1 16.665734213042008 4.033267694346783 4.641656362044913 -3 2 -1
414 2 17.69498590627323 2.835739682041556 7.7966448441194425 -1 -1 -3
246 2 15.981106829062924 3.770842124913957 5.296545076376414 -3 2 -1
561 2 15.386092800115987 0.3118847375722268 6.435590680482715 -5 1 1
412 1 17.54536480446581 3.729737621329649 8.105380533456799 -1 -1 -3
479 2 15.913680946144247 3.511004189613744 7.340142387369657 -4 -4 0
478 1 15.155398462467524 3.333929088129241 6.768734267584589 -4 -4 0
559 1 14.626432458883512 0.7428511783193816 6.838198138948732 -5 1 1
480 2 15.066505163179903 2.3394291192443983 6.7836135374707 -4 -4 0
560 2 14.651384888801118 0.5030185180744758 7.796094281682058 -5 1 1
156 2 13.887938863200144 4.145846094471632 7.595417745594607 3 3 2
529 1 2.836762203601887 7.62416086971393 8.887115126751175 -2 2 3
441 2 3.0435268699067533 4.511403066470259 5.084599028641502 -1 1 -2
530 2 2.5914964210461964 6.698407241194516 8.605048555202977 -2 2 3
440 2 3.306463379535961 6.012400861585377 5.5181718899412 -1 1 -2
362 2 1.2336075289872015 5.68193378874986 5.563715296676737 -2 -1 -3
439 1 2.846028191715091 5.2037744621405535 5.802789296552996 -1 1 -2
540 2 2.486476422593285 4.914644385400664 7.429775714413499 2 2 0
538 1 2.264550983218805 4.92090741158635 8.415347271661284 2 2 0
324 2 4.237632536221041 8.063324804504433 4.836314067496067 -2 -2 2
322 1 4.458952820105829 7.108861569670188 4.683865271048627 -2 -2 2
539 2 3.054934862909056 4.480078942567622 8.835562107399708 2 2 0
361 1 0.30233200038367664 5.994672651737693 5.4882405105312655 -2 -1 -3
348 2 7.111636452421827 4.541116205303796 8.447079739588505 0 -1 0
10 1 7.258239041087771 6.20485035476654 8.046485552557312 -1 1 3
11 2 7.095746528091984 6.316073043651382 7.112921863368449 -1 1 3
72 2 6.231829856716435 6.579594282915328 4.954320575886613 2 0 0
70 1 7.129717109161807 6.433639122592697 5.273379557756305 2 0 0
71 2 7.615030882915207 7.302892370048384 5.3639097722190545 2 0 0
12 2 8.188714065751832 6.512757041287055 8.240242254574014 -1 1 3
365 2 6.0556831010319065 6.816920195102301 9.022400766875744 -1 1 0
196 1 12.586030310988642 8.61153856464064 7.165152727785361 -1 1 0
198 2 11.903233554229425 8.447285404819077 6.382667080656083 -1 1 0
197 2 12.444831039255076 7.813937167047356 7.711451003843271 -1 1 0
24 2 12.67455148374669 5.962319917740138 8.849794381308605 -1 -2 2
84 2 9.426519413896097 8.49109970136589 5.464704241086158 0 -1 2
253 1 10.637253328925395 5.375530382852259 4.8323129681852155 2 3 -1
155 2 12.320972894958047 4.306126891031676 7.937751947959081 3 3 2
94 1 10.997195852405154 7.973997349487878 5.055423116722542 0 -3 0
417 2 9.213095798633738 8.527060290292694 8.625792475426902 1 -2 -1
255 2 10.544723548999448 5.060391539239098 5.749415339913196 2 3 -1
154 1 13.25335210902437 4.57074637239882 8.263643254556772 3 3 2
96 2 11.002757746849467 7.010900891969409 4.93300821915421 0 -3 0
420 2 16.76040570703999 7.242536059655574 7.830398318262131 0 0 0
363 2 17.61288672257906 5.24106787020462 5.1648082668303985 -3 -1 -3
419 2 17.342549724122772 6.99906715166203 6.358496269114155 0 0 0
418 1 16.971435329926106 7.658963116869797 6.969803320859983 0 0 0
287 2 15.491750052999922 8.41034280109529 6.313438582805792 2 0 -2
476 2 2.885274430815591 2.063056098364237 12.503678181798042 -1 2 0
235 1 1.9455131277503572 0.554872793387366 13.127487358699954 -1 2 -1
475 1 3.4157578388376444 2.8787392178125764 12.339090156162305 -1 2 0
18 2 0.5743034280195759 1.0046801615319834 12.77221583125722 1 3 0
406 1 4.249946728119555 3.6668915398071866 9.821725611386196 -2 -2 5
477 2 4.240048694948365 2.7273458837632427 12.860772972045043 -1 2 0
524 2 2.570982610064631 4.208484826756707 12.839549343406391 0 -1 -2
408 2 4.114918798083289 3.3831948807952545 10.700633699488733 -2 -2 5
236 2 2.3529627135511917 -0.08503387628524166 12.499313457751363 -1 2 -1
167 2 6.679024776611587 1.2751601216093122 10.692554072511227 -5 1 -3
168 2 7.976493194330825 1.8978646942886743 11.173851670750661 -5 1 -3
166 1 7.028815859541653 2.1438922666275273 11.026455513400183 -5 1 -3
178 1 6.167601536946815 4.025451946949429 12.773699753314155 -1 -4 -2
180 2 6.241358027483078 3.3503741453313727 12.07674453082012 -1 -4 -2
179 2 7.074050545309941 3.95784569317801 13.182294307104872 -1 -4 -2
407 2 5.164394386697 3.8863733854313107 9.743805628507541 -2 -2 5
347 2 7.350031462306306 3.434213925849006 9.371271886352535 0 -1 0
88 1 9.366956768408704 3.5054613202796157 9.656570610289405 -1 -1 0
90 2 9.914618909977435 2.711573598970821 9.782470203832508 -1 -1 0
258 2 12.472693392582615 1.263956659686835 10.501512051603896 0 -4 -1
91 1 10.95494728688978 1.2604919533020476 9.456593435205548 1 0 -3
89 2 9.665116037791154 4.079656454180886 10.35903803671228 -1 -1 0
256 1 13.386327127726886 1.321249898646984 10.845486638139421 0 -4 -1
257 2 13.31466801784338 1.0678280036309569 11.807539447694058 0 -4 -1
92 2 10.78802017496744 0.31081481168809655 9.58817838967628 1 0 -3
294 2 16.70424155741421 0.08559785767497288 9.93197219456434 2 1 -1
16 1 17.592855007401052 1.4685686066395582 12.614220806082251 0 3 0
252 2 13.874838822435876 2.948277258686568 10.858898438319308 1 1 1
101 2 17.467373376626707 3.0360737267006357 12.69514351172559 -2 3 1
293 2 17.66339548658571 0.6576065096328486 11.093013253989756 2 1 -1
17 2 16.9293549706956 0.9861203009455278 13.133620867714518 0 3 0
100 1 17.458717098954168 4.064055722480229 12.700309603917995 -2 3 1
320 2 14.413364903170253 0.3805767827401577 9.95161237301189 2 0 -1
250 1 14.004701828056156 3.9216428335626086 10.739760401666175 1 1 1
292 1 17.64123826943867 0.1299646756851396 10.261959609975484 2 1 -1
251 2 13.697044061988917 4.2219251267555284 9.83188951496752 1 1 1
191 2 15.624116808859872 4.156181950225915 10.305340971994209 -1 1 -1
376 1 13.941063721013174 0.7261066279147228 13.504407455330968 1 -2 4
192 2 17.031262740269295 4.032027494148299 9.651444469290862 -1 1 -1
319 1 15.004936615431511 -0.0854779238303785 9.353107860684489 2 0 -1
531 2 3.75703108966461 7.643351981269634 9.324555480908074 -2 2 3
239 2 1.7712448274455546 8.345647871817201 10.088325572056418 2 0 -2
525 2 1.0599935606210014 4.603642950820051 12.869729570275501 0 -1 -2
387 2 1.97217469041428 7.660954001493212 12.020191818862708 0 1 -1
385 1 2.1400642707672293 7.484758947793646 13.001186268589766 0 1 -1
386 2 2.0106792776844986 6.562872873462319 13.215658600804735 0 1 -1
63 2 3.7376556044729665 7.86450629281105 13.480285728435106 -1 -4 0
523 1 1.942051734273861 4.830653132887044 13.299574871475897 0 -1 -2
238 1 1.1513342907605302 8.520904540998105 10.802911069616291 2 0 -2
265 1 6.235583230775948 6.799862429657234 12.046992114940208 -2 2 -1
266 2 5.6988832157440354 7.05495885576291 12.86610322061648 -2 2 -1
267 2 6.178254457585141 5.819902173457465 12.041756780508415 -2 2 -1
489 2 7.979194544558856 7.282490927459059 12.027773226652648 0 -2 1
366 2 5.521180924984134 7.061714341357975 10.569848097538383 -1 1 0
364 1 5.558262806155494 7.386704482128417 9.655113841264763 -1 1 0
487 1 8.939945763343458 7.17237205620627 12.109598222922061 0 -2 1
504 2 10.581689610703068 6.655172352377302 9.183373177379579 0 -2 -2
502 1 9.61640686888681 6.768715781008516 9.32809605671293 0 -2 -2
488 2 9.292747400113623 7.7797659126908485 12.735253894855392 0 -2 1
229 1 12.718646504527191 4.534893348936557 12.961811448780969 -3 -1 1
499 1 10.188478773073268 4.807145014645038 11.940917667526772 -3 -1 -1
500 2 11.161577938109724 4.669119134915174 12.348262256603808 -3 -1 -1
501 2 9.999052491859537 5.734345607073648 11.898891076316875 -3 -1 -1
503 2 9.451406957350681 7.080923745812332 10.260953894218922 0 -2 -2
23 2 12.940613548112264 7.332107813507426 9.73025058592949 -1 -2 2
231 2 13.122260865057285 4.33536214807882 12.038825266427896 -3 -1 1
230 2 13.007447148417247 5.366967095149494 13.34102953782507 -3 -1 1
22 1 12.289739708055757 6.8225424742783 9.175245704092525 -1 -2 2
401 2 9.12058867182751 4.529282830111912 13.41711131730789 1 -2 -4
102 2 17.031954240776038 4.293640603634599 11.823828160591662 -2 3 1
119 2 17.48638597559354 7.507252584697785 10.144645725755387 -3 5 -1
190 1 16.58168494868664 4.466077073142225 10.399035303197453 -1 1 -1
120 2 16.596732446472878 6.254105293202194 9.861414655599642 -3 5 -1
118 1 16.64722485258651 7.215714484973339 9.719687036023785 -3 5 -1
318 2 15.226546636538764 8.077778751365397 10.249605094934212 0 -2 -1
316 1 14.313882750069828 8.409190249670605 10.238405417165392 0 -2 -1
326 2 14.094262160596264 8.523392105145565 11.838125629337481 0 2 1
237 2 2.245894567504858 0.4195471253394941 14.071401963561238 -1 2 -1
435 2 2.4837029777424395 -0.16577300630567748 16.168703696226377 -4 1 -2
527 2 0.4398271362938789 0.40381849020920846 16.34977782074284 -1 4 0
433 1 2.0346231547941587 0.5488675712863901 15.752310202834416 -4 1 -2
331 1 2.5409552287196977 2.9533069464795245 17.404682360215972 -2 -3 -1
434 2 2.442420711210917 1.3498187129936516 16.129486746511258 -4 1 -2
332 2 2.4210724500136696 3.780843846023117 16.899325319294633 -2 -3 -1
144 2 4.1310537647196055 2.7966489429691297 17.20430259591672 0 4 1
333 2 1.7352590252064237 3.0803208623345477 17.986661071643592 -2 -3 -1
311 2 6.107734605642834 0.3498022226823102 14.643605828890324 6 1 3
53 2 5.650052967491438 2.4049971694883427 13.96925384293233 3 1 0
142 1 4.9820225109952245 2.3373088717790718 16.95399898831654 0 4 1
54 2 4.963148343368413 2.0507320785679317 15.375429678613997 3 1 0
52 1 5.050036721002273 1.7929375878941431 14.430804328871108 3 1 0
143 2 5.748905084208447 2.836437702017009 17.21293034879964 0 4 1
298 1 7.075585105388012 3.8539288276772314 17.96715346289038 2 3 -3
285 2 8.265117667082011 -0.0480240921378596 15.209738784742946 -2 2 1
453 2 5.03642875900072 0.8472983984547852 18.00760016914085 6 0 -3
300 2 8.025031435821935 3.621405506396752 17.972689664867467 2 3 -3
283 1 9.198412670199556 -0.11705919583232774 15.289931169561395 -2 2 1
402 2 9.34419616987122 3.871305898709009 14.7911978722807 1 -2 -4
428 2 9.921416350762222 1.8168585614614328 15.408583277467558 0 2 1
427 1 10.42785122439433 2.659746237155829 15.477026932068307 0 2 1
429 2 11.437684957325008 2.521109107554681 15.34127570354784 0 2 1
455 2 10.125093905734685 3.274883149792212 17.07076720135022 0 3 -1
263 2 13.143310360453253 3.4879669217771565 14.315338500595564 3 1 1
262 1 13.026265834114824 2.745375498786708 14.971153447965895 3 1 1
377 2 13.31156156163758 0.043778923777111345 13.692653506124396 1 -2 4
454 1 9.66185826071495 3.4021848455453205 17.911873756049008 0 3 -1
378 2 14.748985696655353 0.2710929434085897 13.753224685863762 1 -2 4
264 2 13.5740960660705 2.0093292774263136 14.539697915424586 3 1 1
9 2 13.55206171333689 2.7696091418663666 16.566355656346158 -1 3 -2
526 1 17.395720418238806 0.33825088661900893 16.530925139489362 -2 4 0
282 2 16.39749927042213 3.72249634742634 15.930935392767804 -3 -2 1
7 1 13.876191976252283 2.9397528343259722 17.469168202490913 -1 3 -2
280 1 16.506478880863963 3.1259228187046872 16.71661963443534 -3 -2 1
528 2 17.097249097516247 1.2563248273215506 16.520879061268968 -2 4 0
281 2 15.623227404382972 3.058337523004847 17.048489698720164 -3 -2 1
8 2 13.721270998800428 2.097180281827895 17.92655391663735 -1 3 -2
446 2 0.567879963867284 8.156950611221468 15.404725097489269 2 0 -5
302 2 2.2409165630887777 4.9414875391040045 15.110752583084928 2 -2 -3
301 1 2.28964321684581 5.217258515922028 16.00738336137189 2 -2 -3
303 2 3.173191477971382 5.669514949902571 15.968959808218337 2 -2 -3
432 2 0.9245803428978951 6.050907901277874 16.11875645312657 3 -1 -2
430 1 0.21757838597524856 6.719670125259036 16.179708815617403 3 -1 -2
447 2 1.433680661629998 8.483131602066194 14.179519001883182 2 0 -5
61 1 4.672406764289952 7.940262900563822 13.847488895537323 -1 -4 0
400 1 8.655951069092055 4.298927214037585 14.248986249881845 1 -2 -4
574 1 4.676691710890915 8.248552578934023 17.734869748603952 -1 3 1
62 2 4.806146952629421 7.3641815331909415 14.627347896786892 -1 -4 0
486 2 4.684041103867003 7.059860160132261 16.629822845926398 0 1 -1
484 1 4.598056383162747 6.299915062156655 16.000349038166792 0 1 -1
141 2 7.881388557932603 7.344619186025234 16.120349280211002 2 -1 -6
341 2 7.317478432418331 5.049882360341802 16.85515582032211 -2 -2 -1
342 2 7.783508523632631 5.1796418806857 15.332495462580551 -2 -2 -1
485 2 5.508187268542527 5.871451102465408 16.02104554339724 0 1 -1
340 1 7.321854113670679 5.626599062398998 16.089131582462123 -2 -2 -1
139 1 8.411399994950441 8.168656963651792 16.05232189482679 2 -1 -6
200 2 10.994336225861293 8.465074369954795 17.6149637474922 1 2 -1
140 2 9.244512915157028 7.725206639330267 16.29344147308433 2 -1 -6
199 1 11.009347135171145 7.571407620604772 17.179311528994994 1 2 -1
201 2 11.953894962734722 7.389616119059149 16.87367805375739 1 2 -1
374 2 16.782287943847976 4.932627585807105 14.077290950092598 -2 -2 0
518 2 14.012574743670768 7.371456197349869 13.602899977745555 1 1 0
153 2 17.53607483819903 6.83627055643528 17.73812931019081 1 -1 -1
505 1 13.595228833295701 7.246083211806632 16.61736090735147 -4 -2 -2
507 2 13.855588268096108 6.759346439515301 17.354776264142718 -4 -2 -2
517 1 13.872375058947563 6.531192757928451 14.217365530798986 1 1 0
506 2 13.78857861657376 8.170623346047766 16.685331851316075 -4 -2 -2
373 1 16.329723939464863 5.149522114060524 14.98501839212746 -2 -2 0
375 2 15.438219606043992 5.5089002956772575 14.741311592007806 -2 -2 0
519 2 13.853488950584945 6.871163085608953 15.163093276253862 1 1 0
431 2 17.392291330799456 6.242106978167567 15.688832980501829 2 -1 -2
187 1 1.3671912197747118 9.79386448085426 3.3637589668541064 2 -2 -1
21 2 1.5558391167946626 10.61744818947847 1.717777579175488 0 -1 -1
188 2 0.527098327278659 10.24284696563427 3.760423922178271 2 -2 -1
19 1 1.4645918525643018 11.31172703823188 1.0246048763498954 0 -1 -1
248 2 2.196865332140149 12.831538540836926 1.6092269050270254 -2 1 -2
45 2 3.0842529830811958 10.030929193582573 4.282000795867811 2 -1 -2
20 2 1.8098171276245718 10.786791419529571 0.24232696154012195 0 -1 -1
462 2 0.22872713302244516 12.738872778009787 4.229335529697658 1 1 0
189 2 1.3389431561104195 8.857160939944068 3.395179922858446 2 -2 -1
114 2 8.161822939794774 10.021869341611408 2.873349932174516 -1 -1 1
442 1 8.011461334130331 10.976461922065429 4.4107615167431184 1 -1 -1
533 2 5.35598900238807 12.506851706132462 4.496448304835208 2 0 0
113 2 7.860266660383095 9.42813674295753 1.4022099887366886 -1 -1 1
443 2 8.677173148609631 11.706618675103993 4.291763864320453 1 -1 -1
112 1 8.433899582851478 9.353890845932469 2.187841852808392 -1 -1 1
444 2 7.129812402572149 11.404010095966834 4.41310567968795 1 -1 -1
369 2 9.821835489898282 9.641021645060501 1.3549517182279078 1 -2 0
367 1 10.709652495610417 9.841813324487916 0.9081358243056686 1 -2 0
330 2 12.601207658184123 11.168029436024243 3.977536691630059 0 3 -2
163 1 12.198372824204304 9.26613540691694 3.1676578772598902 -1 -1 2
164 2 11.934163548251286 9.372313268665382 2.1808887916789 -1 -1 2
368 2 10.68560253127117 10.769854326741386 0.7544005824135367 1 -2 0
41 2 11.00721975913706 12.529060449884206 4.44556235616914 -2 -3 0
328 1 12.815850551790962 12.148938138668417 4.189733344335916 0 3 -2
165 2 13.05951527801338 8.801650298643896 3.198493416995166 -1 -1 2
260 2 17.613864825798146 11.508245606841795 0.9570391021257404 0 -1 4
290 2 16.17662573512017 9.853141118584123 1.074880350401514 1 -1 -1
259 1 16.681071911488186 11.671526120639648 0.6329711568911546 0 -1 4
217 1 15.246186885581174 12.648377493297708 2.991152856538547 3 -1 1
218 2 14.427746735088613 12.366909862738789 3.4328873539549947 3 -1 1
261 2 16.15495107576495 11.99350127533138 1.419537460025262 0 -1 4
289 1 15.628497372675223 9.1040236187523 1.2711488150944077 1 -1 -1
474 2 16.519044053474342 11.646703978308816 4.076517075620517 2 1 2
472 1 17.313963542470166 11.268789712977982 4.500884286865852 2 1 2
247 1 2.475316010026624 13.564739325652225 2.239574758296694 -2 1 -2
461 2 1.3191165742498367 13.742867694325522 3.450295139683983 1 1 0
249 2 2.1859314014607727 14.342058206207604 1.697429300170879 -2 1 -2
46 1 1.82587010987785 15.856082592047375 1.0437357680091988 -1 2 2
69 2 2.999147446431198 16.675660789017293 1.9949716153425614 -1 -1 0
48 2 0.9004078173123067 16.01273888727969 0.7963645568994868 -1 2 2
459 2 4.132131087113806 13.332136869940298 2.6413175830109568 0 1 -2
68 2 4.163601262894373 16.710583701246104 3.0284577720866857 -1 -1 0
460 1 0.5553284904038854 13.641200396993582 4.075984825431341 1 1 0
67 1 3.665924617068649 17.251069762114817 2.3657948907798376 -1 -1 0
47 2 2.3166915623488853 16.04830552787682 0.1915647466340354 -1 2 2
498 2 8.444342691545934 14.227557093862522 0.3489149713483147 1 -1 -2
457 1 5.069368637169045 13.302156414099255 2.9148060673966114 0 1 -2
458 2 5.631083026495771 13.49829261054732 2.1056173689438795 0 1 -2
104 2 5.050261568641517 14.817644700026399 3.6798431575414945 1 -2 -2
73 1 6.480971830552932 13.853288434971406 0.7019445638054108 -1 3 5
569 2 8.451458850616731 16.051453017218357 4.013842055462593 4 0 -1
103 1 5.226679459116805 15.725067665687613 4.060151618994275 1 -2 -2
568 1 7.740856437252421 16.58192034901692 4.378862540278254 4 0 -1
570 2 7.665039148830965 17.372507132618992 3.7811166095976425 4 0 -1
74 2 6.19191539932169 14.66930390299503 0.21126595141279453 -1 3 5
105 2 6.249537463132077 15.812712218750036 4.103158205486333 1 -2 -2
496 1 9.305673641189607 14.606315548738909 0.6723918054763554 1 -1 -2
205 1 9.795788440470966 15.13967671241057 3.4356849860115495 -2 0 2
207 2 9.892905206340751 14.27015979740168 3.87303421774751 -2 0 2
206 2 9.482378716997125 14.918517154181451 2.5601400907410548 -2 0 2
552 2 11.284446796398656 15.785561129270377 3.8091614280715764 0 -2 2
573 2 13.36788224613289 15.167606577701767 2.9385692650689066 2 -2 4
550 1 12.159850650475342 15.675702734533157 4.2132454950061025 0 -2 2
497 2 9.57760435376159 15.451938755235176 0.1569347933962087 1 -1 -2
551 2 12.447522257443516 16.607261767670053 4.505538356075955 0 -2 2
297 2 10.087808360744157 17.600169478106157 0.3347671104660355 0 1 -1
491 2 13.395782014591123 17.703466165737854 0.4706428158401243 -2 -3 0
219 2 14.948770177988623 13.55307364669259 2.711852462272417 3 -1 1
572 2 14.717998426819944 15.686492299563422 2.9437383175433047 2 -2 4
571 1 14.169065355707438 15.13358884534556 2.3538837028093043 2 -2 4
2 2 13.725648295862863 14.449307029388205 0.5592543820347675 1 -2 0
150 2 17.089676270248912 14.529145094308843 4.2324920931303955 -1 2 -2
174 2 16.088763608917613 17.709955861798118 4.089651153330052 0 0 1
278 2 16.427789878185948 17.323883169548534 1.4726012972915021 1 0 0
136 1 17.220014964446282 16.34202697062787 0.433280910690568 -1 0 4
215 2 2.530004920783257 8.76734917373861 7.804942953732533 0 -3 1
43 1 3.728277270396129 9.796946248393692 4.953546804565138 2 -1 -2
214 1 2.5532720589658853 9.758792909767095 7.566484206630423 0 -3 1
129 2 0.8660536831995092 10.13288694369506 7.250183535038205 3 1 0
216 2 2.885523167329139 9.77256034754801 6.654479445690902 0 -3 1
426 2 3.770059263166897 10.453227731517774 8.691765622875094 -2 -1 1
44 2 4.337819006262196 10.60988940995711 4.909796409517539 2 -1 -2
532 1 5.347249908815502 11.813688638566882 5.187025255560022 2 0 0
534 2 5.494294089013752 12.219346501171133 6.028029408935881 2 0 0
87 2 5.087798846749517 12.442551363790633 8.164236993336493 2 2 -2
83 2 8.180001529168841 9.508353659936166 5.155225135282072 0 -1 2
416 2 8.909679647402191 9.30879518407779 7.268248887944399 1 -2 -1
415 1 8.906511030078278 9.365497044575369 8.273517942838177 1 -2 -1
85 1 5.57815641364877 13.097178446627263 7.586717416798451 2 2 -2
82 1 8.498527740609774 8.763510200227389 5.696982021097174 0 -1 2
40 1 10.040267155202075 12.724569992184206 4.672491848611405 -2 -3 0
305 2 10.424473789545686 10.309351018152325 8.481391796508031 -3 -5 2
304 1 11.277825936519339 10.752330479179257 8.638396630629591 -3 -5 2
183 2 10.904466358272044 12.145706335490717 7.627987511202657 -4 0 -2
306 2 11.924956335187364 10.121671791908922 8.301507175186785 -3 -5 2
329 2 13.253508195406017 12.128430335412158 5.100983756644692 0 3 -2
42 2 10.032767027852957 12.66706014827114 5.607120320350614 -2 -3 0
181 1 10.558676162514761 12.912578718699018 7.225368983027857 -4 0 -2
182 2 9.754983798764993 13.085937128710261 7.772242108474447 -4 0 -2
127 1 17.82525131625809 10.198658615335292 7.06124466167284 2 1 0
286 1 14.90195498943419 9.046504261862676 5.8819033525423485 2 0 -2
288 2 14.000590788146402 8.837186420961835 6.190170672064046 2 0 -2
467 2 17.586952716993437 11.008386799128196 8.557219930075693 -1 -1 -1
128 2 17.53347238531389 9.216000810205388 6.975089356712936 2 1 0
473 2 17.127185221501104 11.0004297645583 5.41861087217841 2 1 2
423 2 14.4563483872063 11.211247208691322 8.403142190136876 -1 0 5
116 2 14.778759162464441 12.317905201008948 6.512170272429785 -1 -3 -1
115 1 14.186862832364168 11.545814338950052 6.4844715762716785 -1 -3 -1
117 2 14.529496719560472 10.630444052843709 6.27878039544969 -1 -3 -1
225 2 17.692190914032164 13.123563412371144 8.821707480007836 2 0 2
220 1 1.1309514542284154 17.646462443424742 5.755287797396748 1 0 3
221 2 1.3840899856658777 16.738536984666347 6.023074866155026 1 0 3
351 2 0.788664904886959 14.578867256375926 6.938102522396822 2 -1 -1
350 2 1.2264570197057787 14.4282478586181 5.434583797084413 2 -1 -1
349 1 1.4666520203790263 14.830761319711032 6.292101504550677 2 -1 -1
162 2 3.3016288678593555 14.924033163050586 6.719390227811187 0 -4 3
381 2 4.2093564532583505 16.370926316169125 8.356758578001614 1 0 -1
160 1 4.145293479184702 15.411031140552536 6.800112444108596 0 -4 3
161 2 4.354091707595868 15.65018856904676 5.832916257587969 0 -4 3
379 1 4.128403990123947 17.079167954436514 9.090401976148396 1 0 -1
226 1 8.667444799024917 16.49239549829908 8.754230964952276 0 3 -1
228 2 8.451441585220316 15.519054703766612 8.557969344388967 0 3 -1
448 1 8.161919398292552 13.836117450345814 8.608407058237113 1 -2 2
270 2 7.980618168738498 17.471959249163564 5.815151314656898 0 1 3
450 2 7.309310764417523 13.48733334308055 8.228583262290844 1 -2 2
86 2 4.987660580132678 13.876747987065832 7.492137267745023 2 2 -2
227 2 8.429099773204957 17.000287198617603 7.9171121874622035 0 3 -1
13 1 12.958919650591376 15.674418190370822 8.9160740372117 -2 0 -1
511 1 12.615853710178856 14.44814456252986 6.5518507050337496 0 0 2
512 2 12.393174582676563 14.882153904461351 5.66568942935775 0 0 2
14 2 12.769394184970974 15.263866026950348 8.022279368981675 -2 0 -1
513 2 11.818876322255603 13.932405910750719 6.853573156390968 0 0 2
172 1 16.337435622354548 17.4527729971032 4.984408816102713 0 0 1
173 2 17.324734072256156 17.530437537313883 5.166800892988939 0 0 1
148 1 16.230046856437642 14.823262752053619 4.6526390237133946 -1 2 -2
149 2 16.25976524907143 15.811124681182179 4.708223048971471 -1 2 -2
403 1 15.401681519605702 13.989111503013747 6.968543261634169 1 -3 1
404 2 15.834202706030288 14.370723706908242 6.10981960875852 1 -3 1
223 1 17.73288728138884 14.10949819216261 8.528847754300894 2 0 2
405 2 14.578360812610509 14.465862438875732 6.932641876000666 1 -3 1
224 2 16.825677124434517 14.305394852395217 8.20554998878242 2 0 2
272 2 1.6363203121199175 11.571278341971327 11.349585916000956 0 2 2