LAMMPS data file via write_data, version 8 Apr 2021, timestep = 0

6144 atoms
2 atom types

-2.270403835136134 62.238692966318816 xlo xhi
0 28.12332158794811 ylo yhi
0 27.18254772625585 zlo zhi
10.165270860457582 10.191387452533782 7.123162538396716 xy xz yz

Masses

1 16
2 2

Atoms # atomic

1595 2 19.143555576036388 19.34698054440358 17.3385923489758 0 0 0
1604 2 16.036360340254895 23.73558449984079 23.60116369121923 0 0 0
2336 2 7.3958642549898705 4.802226098303339 16.874146805461166 0 1 0
987 2 11.097908128528603 10.279853255240933 12.757215980049676 0 0 0
225 2 7.7371963097170475 5.927959390375452 13.870987932087818 0 0 0
52 1 15.029903688484792 14.11615151148424 8.181989140983154 0 -1 0
25 1 13.37974616061758 11.10860426207976 9.134268939362382 0 0 -1
882 2 11.383526967387715 15.501767931224517 15.38945942915034 0 0 0
1591 1 5.5394119910577775 9.732150462930726 7.2564872039293045 0 0 0
886 1 18.43497449394245 14.763742650588528 14.323968409583557 0 1 -1
1633 1 12.983379144698587 13.31389344534003 20.93058844214665 0 0 0
5803 1 14.238596876939026 19.75756172002999 11.318239137957608 1 0 0
2443 1 17.201325582081655 15.904402036481873 7.9274447014771106 0 1 0
826 1 20.93750516750951 25.919005102143892 15.659376424715775 0 0 0
5279 2 11.512981197542258 16.03907768038072 18.94829809178433 1 0 0
3616 1 15.85615997291408 30.637336851288925 10.636285379844471 1 -1 0
81 2 2.950351204374678 3.959894701096206 1.9856979593140067 0 0 0
1634 2 13.093169494013043 13.037113258886901 21.83663036030346 0 0 0
1064 2 4.607022040814568 0.9282739049514003 3.126410838407495 0 1 0
3739 1 5.221985975586977 9.113496956502765 2.9652431351391044 1 0 0
1740 2 22.6805943453023 31.096726349143864 20.826917170607015 0 0 0
1111 1 9.616433120515259 23.34304004446611 10.955430216816522 0 0 0
1664 2 7.5232467978905895 13.325105738696614 13.592025107943687 0 0 0
1709 2 14.33075205321193 6.4628532360261755 18.487408457738823 0 0 0
1279 1 22.904151091468222 11.682284542966487 25.2403648003985 0 1 -1
53 2 14.956172751607978 14.199565301966544 7.157909563482424 0 -1 0
1587 2 11.434887283015533 13.360834507133557 2.571643919674077 0 0 0
1586 2 10.194554879735215 13.547727816158497 3.4452318186380295 0 0 0
2325 2 10.712584476824334 27.683053243858247 1.1189979362502291 0 1 1
104 2 6.252095869800277 14.131862077216205 12.012852031582451 0 0 0
416 2 18.324641332444326 19.866524509708253 6.519217431014971 0 0 0
2697 2 26.215512616507777 29.653528332113527 20.34188693134722 0 0 0
610 1 11.238159083382099 3.3355507340517283 8.633998696176501 0 1 0
752 2 15.078749062957003 15.384368556763183 15.165632012912122 0 0 0
2401 1 22.965059310106565 31.822665836463994 16.196471635980355 0 0 0
265 1 5.570875710901056 5.9247361284794415 19.22682997810587 0 0 -1
1708 1 13.399567830709637 6.524474084617524 18.21583151674062 0 0 0
940 1 13.761433671253466 19.158580882027312 18.43686252270462 0 0 0
907 1 14.101952615159094 20.7757861573611 23.413878474783132 0 0 -1
99 2 16.115323574944306 16.474696066751992 4.019299479312762 0 0 0
1561 1 11.094731698391262 11.796029170435562 18.125349387016556 0 0 0
2337 2 18.129029745933543 31.78736268216294 17.667920016409738 0 0 0
842 2 15.215084809381116 28.238314876932332 16.248121586425228 0 0 -1
3003 2 20.555006097818765 30.568033492085892 11.919171594545693 0 0 0
1860 2 13.821850275774645 13.580722723426984 18.54140972019204 0 0 0
632 2 7.746072501693508 11.81620940291591 7.445501780221649 0 0 0
224 2 8.692988650486688 6.907424874647682 14.678863662748357 0 0 0
1781 2 16.987553866542225 12.852570083198353 11.102912399771913 0 0 0
1710 2 12.920622709348027 5.72571556059129 18.573244092808473 0 0 0
1689 2 14.090077331707397 13.72734290988207 5.289281286262216 0 0 0
1705 1 10.60071205489622 10.588243638793804 7.543940894055363 0 0 -1
1773 2 10.593590790510977 25.64823611431766 7.697912911618849 0 0 0
309 2 9.981050208419544 7.601335883325103 24.53520039546646 0 1 -1
1570 1 6.174483873318813 8.69178683042664 13.336037051775715 0 0 1
298 1 7.87981299801036 18.134829258749456 9.63711325523466 0 0 0
2434 1 19.16858804573442 17.99034071542753 8.789810198414376 0 0 0
2643 2 12.777199555937752 12.425597445357436 7.974218264306681 0 0 1
1635 2 13.103088953573053 12.446131776733548 20.488867608405634 0 0 0
824 2 16.832666488366613 31.426523691956337 23.683646224979633 0 0 -1
134 2 21.06491927416765 20.572624080762957 18.22102481587856 0 -1 0
5278 1 11.302223629047363 16.479251656422395 18.09995580495721 1 0 0
129 2 16.130050914778234 31.707759505002283 21.17926846308374 0 0 0
6040 1 19.794625215808342 27.694227778308743 22.857216322707156 1 0 0
4503 2 7.044362768198436 16.904456287838414 0.8915259594660127 1 0 0
2601 2 11.21700833066943 18.322080050739558 7.612511109476093 0 0 0
2380 1 12.034759728182834 26.337840245562592 16.60500823545215 0 0 0
4435 1 8.290137114874558 28.333833870335802 0.8952565944655997 1 0 0
894 2 14.379628995362394 21.722129553611722 11.7489249653121 0 0 0
1545 2 12.773135843808635 11.98001349677298 14.630406382514606 0 0 0
1913 2 8.98570378154368 9.657622974955974 23.710051378905405 0 1 0
1685 2 11.23940211011875 26.53776617810063 4.83457648630784 0 -1 1
2450 2 5.31231063971247 19.410381833743102 0.11157589139624888 0 0 1
1063 1 5.01652324869268 1.8177367864527716 2.7974594462110853 0 1 0
1656 2 19.45018068477975 30.08289971101192 20.718919297654466 0 0 1
2508 2 7.7936444421385485 22.5540110852794 4.637029867689665 0 0 1
2507 2 8.612257736280188 21.94534661445868 3.5152929229529315 0 0 1
782 2 19.062076416744983 27.03306199369615 21.646201684022945 0 0 0
359 2 17.901206089326593 24.869145930036417 18.518773105368798 0 0 0
1739 2 21.641805802846545 30.339887870450884 21.627205719588293 0 0 0
976 1 21.068022075234953 11.272255162290811 14.441608789597323 0 0 0
249 2 13.418774189116904 30.46419089768902 13.82295515242664 0 -1 0
5280 2 11.714060727386755 16.056003546444355 17.332494773806662 1 0 0
887 2 17.822537719857458 15.483563350408883 14.261439931752715 0 1 -1
1651 1 13.713731543409843 27.134390201625752 21.442333400261333 0 0 0
54 2 15.606369351014957 13.318637390275564 8.202630449272597 0 -1 0
1870 1 14.104072860125429 21.767689560250677 8.001056587051206 0 0 0
223 1 8.568371434863552 6.447052857832897 13.86623569795877 0 0 0
2024 2 12.982465968561568 13.931072143043158 0.8326872715144514 0 0 1
775 1 10.675025873976336 23.80272598962128 2.9045168887917643 0 0 0
1974 2 9.690244470167517 12.664773368554878 25.09047367517542 0 0 0
1687 1 14.579299321906388 14.49205902149569 5.611550638757637 0 0 0
986 2 10.697381108942519 10.957301976792213 14.076023818439227 0 0 0
1706 2 11.12970560954158 11.427885224647508 7.603681607269722 0 0 -1
1547 2 19.55439828690237 15.59626978466524 15.759313180791603 0 1 0
5974 1 14.575052739208276 23.82741889997025 24.654145505242404 1 0 0
1688 2 15.505803267508655 14.36171504463754 5.2756165047065116 0 0 0
4344 2 2.755090011687447 4.327986422332643 10.744596187362598 1 1 0
3740 2 5.263747857682215 9.022332479075587 1.9585610819970527 1 0 0
146 2 18.48987988713856 26.97685590919799 16.77060509619027 0 -1 -1
2516 2 16.798808540807848 4.517907378474709 16.72968416141536 0 1 0
2481 2 21.2590343999922 10.53003107287316 21.99121387196814 0 1 -1
1563 2 10.734791382879145 11.235294732583894 18.874341041605508 0 0 0
908 2 13.980925475088492 20.387001242544876 22.53485475361339 0 0 -1
893 2 14.676544535329226 23.095487567662197 11.160521395491198 0 0 0
3614 2 13.476872591924316 26.06068889632143 2.8802878799110148 1 -1 0
6041 2 19.29954455919316 27.878052774458418 23.64035484561623 1 0 0
1859 2 12.677531308505184 12.69561037682276 17.96693004791285 0 0 0
2370 2 8.062086264602911 16.013625364307714 2.8010195030266853 0 1 1
1585 1 10.8874317788275 12.910924436615845 3.261767608153556 0 0 0
2414 2 11.499105080063732 13.224343818312313 10.700421304611364 0 0 1
216 2 16.31058439946879 23.761909576754878 18.187021440006593 0 0 0
2441 2 9.670096343409963 15.522977446041256 1.6904612209665462 0 0 1
1592 2 5.312661935128476 10.641246225199726 7.446381576405764 0 0 0
1562 2 10.351576270058892 12.050764094120318 17.57132016866018 0 0 0
1662 2 8.194302175554153 12.946195225912003 1.7669471408287996 0 -1 1
1738 1 22.553449286808178 30.48099445882573 21.53168513796127 0 0 0
949 1 19.289459059635416 21.24804041977936 9.770915913575209 0 -1 0
2324 2 21.195689566583916 34.234897314943176 26.862605859851712 0 1 0
2474 2 14.124139165493935 26.61600566236124 9.137908764526374 0 -1 1
5976 2 14.526123211098211 23.127788902312428 25.40020063017314 1 0 0
150 2 12.586105678392288 6.923796420274119 25.43381531777274 0 0 -1
2440 1 9.840457397388608 15.317488938997258 2.6042998840401808 0 0 1
98 2 15.687034278570502 15.389388414647621 2.8566479619300895 0 0 0
247 1 14.154577771684577 30.86965577167195 13.362425291733977 0 -1 0
369 2 16.629781293302976 10.157849395158234 20.052173120427724 0 0 -1
1065 2 5.933362715785709 1.651479076699927 2.5542046770226063 0 1 0
1899 2 18.36279093426125 27.94484311978793 13.23665690883069 0 0 0
2355 2 18.367327356691174 9.618505781242874 10.79937066423634 0 0 0
962 2 25.774869561851734 32.523484426848675 25.1094430687891 0 0 -1
888 2 17.887075673094234 13.928454289336944 14.398284108931897 0 1 -1
845 2 15.281574960847705 20.16781388941212 21.082651486457323 0 0 -1
1667 2 12.278908498455682 20.551930128889325 20.78868225940821 0 0 0
1732 1 12.009952532814253 10.351291345262165 23.922077119371018 0 1 -1
3617 2 6.423233260116966 3.0944940290774086 10.97673386314512 1 0 0
830 2 7.319102950121932 11.129357901976684 12.184645460882177 0 1 0
2863 1 16.863438797296205 6.8994812122071485 22.393806841107715 0 1 0
6022 1 16.975930631106667 28.231940380119674 19.494337590117183 1 0 0
5174 2 21.768734058804935 32.62579057174412 20.02115313259493 1 -1 0
969 2 20.597367170490585 24.199815014079867 9.086617172920002 0 0 0
2377 1 -0.23084246422933719 2.6761988551545404 0.029176236344249314 0 1 0
588 2 10.316072437369252 15.787085940140923 7.967550802794276 0 0 0
909 2 13.936575970028999 20.074289246228556 24.04041361624774 0 0 -1
2668 1 16.40316077920654 18.170142401455752 12.344333626950023 0 0 0
554 2 21.82556068434146 13.429977117474982 15.81877401253242 0 0 -1
355 1 8.69235498718615 19.26499393658933 2.767546259329441 0 0 0
357 2 8.82553331073219 19.35430003441678 1.822943181602163 0 0 0
307 1 10.081682742618375 8.58345784411075 24.553318415711754 0 1 -1
751 1 14.838478917962723 14.95767167315325 14.340352565656108 0 0 0
1780 1 16.241531713209195 12.560720751023963 11.663957015591537 0 0 0
898 1 18.470765652575217 30.43576579620385 19.26670497785177 0 0 0
2320 1 8.719786720068416 15.678313679783614 18.12661804340653 0 0 0
2547 2 20.34293848841152 24.577841637645246 14.991003404665587 0 0 0
352 1 7.425230662558494 12.665370416264805 3.5572357492650086 0 0 0
961 1 25.784377483900453 33.05810035422973 25.964376963575994 0 0 -1
885 2 19.986758852060227 30.386739995410093 14.914430122717306 0 0 -1
677 2 12.596000468799911 16.108999915086372 23.235719726628822 0 1 -1
1823 2 9.47717594698672 11.728942567030666 23.220965538987738 0 0 0
1548 2 19.302028894260005 16.337163385826823 17.114831706877407 0 1 0
818 2 14.920907452941274 29.1023664173389 12.677609232140586 0 0 -1
737 2 15.427437708610094 4.724691962746347 2.5513622955570443 0 0 0
1603 1 16.56014397915216 23.85071337055977 22.72674174746888 0 0 0
5971 1 17.863922935378618 26.12245969643283 11.899426742475992 1 0 0
1605 2 17.465823334766657 23.713282797320907 22.996333743675343 0 0 0
1637 2 27.044967850584083 33.013761441682746 26.893528914246776 0 -1 0
77 2 13.074792716648622 28.59781680075793 7.104977128217717 0 -1 0
5972 2 17.384365816794027 26.520911511460817 11.173013459843828 1 0 0
999 2 4.757632222408926 3.193883379813818 4.137551072962943 0 1 0
2669 2 15.501883065934921 18.57899409396849 12.12467244375659 0 0 0
5173 1 22.3937433857257 32.22098452288166 19.3443214087962 1 -1 0
171 2 13.59957249281717 17.953506764015472 24.393129441717452 0 0 -1
5801 2 9.163997170818421 21.983138993022717 1.3235799874553336 1 0 1
2283 2 13.300304524519163 21.903045674436232 4.96270682995275 0 -1 0
783 2 18.95279053021113 26.00549681076611 20.28813796199552 0 0 0
97 1 16.012001361152187 16.283133103756285 3.06828213553469 0 0 0
1837 1 5.817759382484349 10.88941001975172 10.998238505130349 0 0 0
1131 2 7.50764443838081 10.71036632713173 14.533960478879866 0 0 -1
2576 2 19.061538718852944 30.29024555086344 9.831155655278174 0 0 0
2399 2 6.6073252657105765 16.680163273712942 6.823307358403758 0 0 0
963 2 25.77390088142589 34.01207190119677 25.718486021934304 0 0 -1
2406 2 15.75938940561082 29.188634310865915 20.64753366941043 0 0 0
5035 1 10.566156783445392 18.196189557557535 22.113305200575656 1 0 0
917 2 15.793376225286805 19.900514288962093 26.822183197192523 0 1 -1
417 2 18.277206476950433 19.212432316934457 7.996125391206924 0 0 0
985 1 10.441526127321206 10.93811596270917 13.142656722202409 0 0 0
1884 2 12.82047542857981 15.915551914523482 2.7549035613296797 0 0 0
76 1 12.20786551413511 28.921443455784928 6.766527490223827 0 -1 0
2594 2 21.970985810031575 27.669980946501067 8.64972346970222 0 0 0
1707 2 10.239168021960424 10.402186116051055 8.421401834469213 0 0 -1
1569 2 16.117956592457336 24.186850750363813 9.294749932543246 0 0 0
269 2 9.254562974718066 16.16946192704278 14.827817513568142 0 -1 -1
2375 2 6.631518093605273 5.009628794182088 8.600995745721752 0 1 1
2548 1 0.855073569711954 6.5227226021983435 1.988722648574319 0 1 1
883 1 20.307197347533247 29.511698934228438 15.238470781696211 0 0 -1
2442 2 10.210212116507451 16.187681923098065 2.9600708153698614 0 0 1
354 2 7.674772640381089 13.296279548602174 4.234134740427314 0 0 0
1088 2 15.069531653791143 28.818778805697114 24.63175333658085 0 0 -1
779 2 11.598121011178684 23.533910936357504 8.80111822544779 0 0 0
628 1 25.582720952995 31.279754590477882 13.436659583546318 0 -1 0
2959 1 21.912883359822125 8.444259814862736 23.93912353276548 0 1 0
346 1 5.886398677638859 15.352052974804835 5.990605261161583 0 0 0
2572 1 17.542409997804743 16.376013470443837 10.479362899549024 0 0 0
198 2 14.349449410232028 27.341754821256774 13.781916843593839 0 -1 0
156 2 15.83823323364487 6.21633445646182 9.76000714510437 0 0 0
1589 2 22.792434081540016 30.856408713752025 26.35156722743507 0 -1 0
1616 2 18.08188103496219 19.331456120525065 12.123560813169725 0 -1 0
193 1 9.095019374242588 24.936122628193836 1.3079577109337748 0 -1 0
1857 2 10.445031795721883 10.01500813511411 20.738605755146992 0 1 -1
1594 1 18.29504152410484 19.499646990959086 17.686025070631793 0 0 0
2445 2 16.541106575102145 15.228718286509972 8.15863097287762 0 1 0
1588 1 22.24159482880266 30.322613756491474 25.71158293512472 0 -1 0
1150 1 14.961263079518153 23.656704761314856 17.000629933511537 0 0 0
1841 2 13.200477157424068 17.558221824344436 21.25662589846428 0 0 0
313 1 8.606414632282071 8.351483330808813 16.260605074778944 0 0 -1
1118 2 19.743970610265208 23.352056909925672 21.84120614492072 0 0 -1
1838 2 5.433182987472758 10.07158826459237 10.695131469349905 0 0 0
2613 2 23.580371329595366 24.08570861511834 16.237272639437705 0 0 1
3004 1 25.343140919957648 24.506270313842744 26.364161045063383 0 0 0
1762 1 10.275471595379424 20.407794240050347 8.894506200294462 0 0 0
2556 2 21.748293341810466 18.736859772021504 16.035547354110697 0 0 0
1469 2 27.34105259863377 23.042200003254308 21.15766308624935 0 0 0
1819 1 21.80858278215957 29.03014711440074 9.909358348485215 0 0 0
1654 1 19.933057511496877 30.07028363435468 21.61327916042067 0 0 1
2449 1 5.470114141692973 19.66399288354523 1.0514257378429228 0 0 1
2747 2 17.76731581965767 6.885479396417407 16.107182572355715 0 1 0
376 1 22.298349739116766 27.208172821651395 13.850117556867115 0 -1 0
1109 2 13.546730080336884 6.68842434727681 14.497637228948172 0 0 0
439 1 13.201156543715738 22.401914727526915 20.977839879960534 0 0 -1
5804 2 14.690334275161797 19.815878779095048 10.479083341785723 1 0 0
2555 2 20.66477283010517 17.70388025548807 16.35585904303949 0 0 0
374 2 7.307930156619584 6.748064459162535 5.061665600356941 0 0 0
1543 1 13.351554526041511 12.43111066719947 13.921774702969733 0 0 0
2334 2 27.966386386121357 24.93040428659845 19.647909053530363 0 0 0
2364 2 15.422909348496054 26.163900446042945 18.133082477507916 0 0 0
114 2 21.03810592758938 29.443642666567605 18.556918731845084 0 -1 0
1786 1 12.546904755752918 29.30023964586263 14.604205963600995 0 -1 1
2444 2 17.45557002606561 16.254062882601687 8.840974313628125 0 1 0
2361 2 9.832325855384802 9.561637807764937 10.336300736655916 0 0 0
2642 2 12.495815268433406 12.607159384919916 6.4096367673933194 0 0 1
2307 2 5.815716330238734 5.854800211615523 6.481904511626926 0 0 0
1119 2 19.69280965349349 22.750265531883816 23.12118416505373 0 0 -1
4440 2 8.673207524264551 25.81320681442295 5.636098487812176 1 0 0
2374 1 6.868331354371454 4.54524846972412 7.721811222771727 0 1 1
1668 2 11.303313270659435 19.46803057060148 20.927937200270335 0 0 0
2306 2 5.142755737612532 5.448900047547688 5.1623382211594615 0 0 0
15 2 10.573486686982713 13.362666444557078 19.220995713202228 0 0 -1
1671 2 4.15272403312947 12.758998450649965 1.2823253609236969 0 0 0
5015 2 9.799845411856799 15.332226717152658 20.527787271317766 1 0 0
195 2 9.715463109972777 25.58025756757541 0.9085361214816695 0 -1 0
857 2 15.007974254412717 15.345987324590823 12.5756108973155 0 0 0
1252 1 18.512251868967994 12.513439283791008 9.891682149882273 0 0 0
2394 2 19.57363964036353 32.594135846258496 21.010963899970186 0 0 0
1103 2 12.034025429348633 8.749860780027532 21.07180348854357 0 1 -1
2604 2 17.47727957512943 11.752734919301291 26.471802874942874 0 1 0
881 2 12.838765691519521 15.350971304553177 14.910730423538626 0 0 0
2523 2 15.201227352425805 23.186522609475247 4.242622613731278 0 0 0
2644 1 9.337128114967 6.795367021573871 18.908446463082708 0 0 0
2593 1 22.16172447330963 27.03421587331835 7.888279279125838 0 0 0
2376 2 7.794088835679176 4.732636535977797 7.402142726267494 0 1 1
5179 1 8.921574689534664 12.555510066449036 16.6331054628493 1 0 0
2646 2 8.716556698267276 7.509215587595192 19.04823859142928 0 0 0
2413 1 10.908673264177796 12.52963135088533 11.070100167837115 0 0 1
4342 1 2.79545686980487 3.3336676461691543 10.759620002359469 1 1 0
2603 2 18.29477382974965 12.078371290032615 25.305859322551914 0 1 0
2554 1 20.93503755253521 18.584468970789633 16.546668458735954 0 0 0
1931 2 28.202772927158687 25.999427079579775 24.22383129522522 0 0 0
2305 1 5.715402028651555 6.134489752947604 5.608985130050021 0 0 0
443 2 12.523410912997646 1.8355932216021993 4.5606424868225774 0 0 0
2637 2 10.561084976644413 5.924059295530169 22.17939305099123 0 1 0
753 2 14.77979851654045 14.038945406350605 14.596933287000697 0 0 0
1669 1 3.956441798919038 12.872446818660777 0.37616199090308267 0 0 0
2641 1 12.152362873330086 12.831645697198345 7.352009446331381 0 0 1
843 2 14.718298223451642 29.497969840723417 16.929405911872323 0 0 -1
318 2 21.233636296591154 25.57980557737588 27.05438378956739 0 -1 -1
725 2 11.961223614765757 8.75481653949651 1.30486318672203 0 0 1
139 1 18.474151864819927 8.32191610026729 16.79371753361559 0 0 -1
1672 1 16.56116871500507 22.449888172584096 13.727529372490096 0 -1 0
1617 2 19.285114596811244 20.169694940342794 12.5898330915808 0 -1 0
1117 1 19.417233900045453 23.562474802589584 22.723106261197263 0 0 -1
1116 2 17.44387870716824 25.632879684790318 8.984182706991335 0 0 0
1909 1 17.40165668254491 12.228610704942925 14.030260466131361 0 0 0
113 2 21.064358147284256 30.069392865110352 17.132355272380057 0 -1 0
368 2 16.859109836523828 11.326546931545824 19.09098084883563 0 0 -1
3666 2 2.374985370333468 2.4232312794450466 6.432225520297057 1 0 0
132 2 2.320757350297457 9.339730725891371 2.2829182340243492 0 0 0
3741 2 6.127873947736967 8.990451001000864 3.2925672755930337 1 0 0
2953 1 27.95003833514638 32.298702471349905 19.406453157980806 0 0 0
342 2 24.713109525996504 21.427759490073942 23.0313089096895 0 0 -1
130 1 2.448823286904759 8.542131020146076 1.7986131372214378 0 0 0
2521 1 15.970606346463752 23.38681728030982 3.690827500943326 0 0 0
1684 1 11.029107171173587 27.50145589501421 4.670784945592172 0 -1 1
1596 2 17.89465907360959 18.672616706319747 17.96606904656476 0 0 0
1621 1 16.051402651545555 6.172732312362018 18.802149263712526 0 0 -1
553 1 21.350252957362276 13.465035205272523 16.682122400031616 0 0 -1
1151 2 14.83360741822232 24.41431000996675 16.356297076138425 0 0 0
780 2 11.264170149072147 22.02222267192228 9.103975953749634 0 0 0
316 1 10.738240546668193 19.371411318164682 0.0018415443809835774 0 -1 0
83 2 15.011661362339362 25.17915785868479 25.5224546523307 0 0 -1
2491 1 26.814944290296634 24.668378870120765 23.86024052089708 0 0 0
5 2 19.3867456114455 15.111180938324436 22.363338529779945 0 -1 0
1110 2 12.80042320720918 7.8480921357196936 13.684294034323825 0 0 0
1701 2 16.053724621287877 21.0907634372125 23.943557277189527 0 0 0
833 2 19.017086346098264 31.35943331592263 24.361779232510383 0 0 -1
1115 2 18.321575034101716 24.472838672904388 8.554620824717448 0 0 0
2655 2 12.796782555911456 9.588203033847824 3.331826657819978 0 1 0
819 2 16.29120911033592 28.273170417113782 12.451812003150927 0 0 -1
373 1 8.07643706123899 6.973228067182641 4.496165664983898 0 0 0
2480 2 19.992648527209685 9.63916404422647 21.683952428893008 0 1 -1
1565 2 14.093416977693176 15.489406743980238 19.934888237822292 0 0 0
1692 2 12.80126392368621 23.902124148945184 5.483992274943192 0 -1 1
945 2 8.560966161781085 10.058561417921604 3.969581957507362 0 1 0
375 2 8.174922783893068 8.001049439573865 4.5897653821735815 0 0 0
47 2 7.4102345911486065 25.40215467226096 1.511887934523285 0 0 0
2439 2 9.961906919120874 19.105561949769044 11.851774409897839 0 1 0
758 2 2.6513599824520537 7.578267981361506 5.921564840610367 0 0 0
1658 2 12.987566137577815 25.053346354345653 19.115428370816243 0 -1 0
1032 2 24.300889092606543 16.97974843017664 24.43997128748764 0 0 -1
267 2 6.076018352408569 5.169640379154224 19.67406626762863 0 0 -1
314 2 8.335360117095943 9.20351206644696 15.95689864412117 0 0 -1
2602 1 17.778154293712493 12.53345615100009 25.983085513484095 0 1 0
149 2 21.839622589450013 34.33464466638909 24.41189417292431 0 -1 -1
1560 2 4.681181021675879 2.7427535325078525 8.626445038309832 0 1 1
794 2 11.23231538477468 3.6331209207154997 0.8605746679503662 0 0 0
271 1 25.609006798657113 24.89167488421149 17.071993971497644 0 -1 0
137 2 22.190811912339626 14.491775405589296 22.967516561337533 0 -1 0
989 2 14.040992397462022 8.3480428373886 22.407611230001468 0 1 0
385 1 15.326605444427189 16.171147038988405 16.895710411414896 0 0 -1
154 1 16.698494817448978 6.364911139691178 10.162588854247979 0 0 0
140 2 18.20070261439853 8.620280715433225 17.689545939974657 0 0 -1
1152 2 15.199400062713417 23.013136279301158 16.33809256270275 0 0 0
1872 2 14.420820690936376 20.845564172766974 8.2020692931957 0 0 0
5176 1 14.154315589692827 30.069018744513997 18.537828875885143 1 -1 0
2437 1 10.177456247424304 18.44172344575514 11.165531439566374 0 1 0
1615 1 18.948763228173352 19.663839443278164 11.837485626282895 0 -1 0
920 2 16.486620100016065 12.24565602545212 16.915317095186047 0 0 -1
2464 1 9.173663031421853 19.643278026670778 13.543545326935774 0 1 0
5274 2 19.779651979592497 33.2613659158873 25.21477681017474 1 -1 0
1800 2 13.591212508495335 7.2504775506283075 0.7397196177598782 0 0 1
2670 2 16.32927085896568 17.85829141605452 13.246952424426176 0 0 0
117 2 12.891978732906468 11.272858416110775 4.598629919477806 0 0 0
1057 1 14.732002255114692 11.993675750967721 26.353335384930382 0 1 -1
2492 2 27.031300672505964 23.75741789734465 23.675456042482082 0 0 0
434 2 19.769033606903292 14.194069815264898 6.740070488097252 0 0 -1
1112 2 10.47473052494937 23.17406104228287 10.618498459999062 0 0 0
273 2 25.348075357801285 25.440762796262362 17.814197103018813 0 -1 0
633 2 9.055329890596285 11.219256321289489 6.940270495639975 0 0 0
1910 2 16.900476653297716 12.194771372997558 13.221679732135458 0 0 0
846 2 14.406550666975198 19.385327380932047 20.119220247393965 0 0 -1
433 1 19.651099024679723 15.12492509326043 6.99558371214049 0 0 -1
4505 2 8.356454425615626 21.138207638795663 9.886866064339044 1 0 0
107 2 11.179441300757253 22.913905383092533 15.333408953322147 0 0 0
1666 1 11.40432942142542 20.279897430851186 20.426065805382244 0 0 0
1728 2 20.260926236311473 6.1414811184868086 17.41146284993558 0 0 0
2427 2 6.286932128339359 6.8819855709954965 16.415061923804366 0 0 0
834 2 18.827055947099172 31.033597052474576 22.86129169733386 0 0 -1
2350 1 20.747187423933575 21.816185407957228 6.570313390516683 0 0 1
315 2 9.62543026583599 8.360945422850499 16.325671314038825 0 0 -1
942 2 13.593050254182373 20.121440036477203 18.238883230051897 0 0 0
386 2 14.508531739504042 16.633438961020147 17.055272459280093 0 0 -1
1610 2 9.200402464619577 16.521773193172876 11.793411089613018 0 -1 0
726 2 11.75315048436202 10.238172176617992 0.8633009522723362 0 0 1
1714 1 24.348458434069233 25.968488257267555 19.235472826762933 0 -1 0
2595 2 23.010389758504164 27.319240045283657 7.546630086310902 0 0 0
387 2 15.305551030487026 15.39698376131681 17.519321695500338 0 0 -1
3613 1 12.632335767856885 25.69765783829909 2.4677282713059023 1 -1 0
1559 2 14.981366963333938 29.92675554245739 7.3958066013002615 0 0 1
1653 2 14.689413441005376 26.88646906836727 21.623425094021336 0 0 0
1558 1 14.400349844866957 30.1818222204515 8.128819856560678 0 0 1
1763 2 10.145093931570328 20.323314503251773 7.939915093962852 0 0 0
2339 2 13.819083621922728 11.545473227196565 12.548616725085424 0 1 0
1323 2 23.63403706347751 8.072527173446039 25.243301190328808 0 0 -1
409 1 19.812565633051367 12.142443047007973 23.99623197956151 0 0 0
2549 2 1.4444065615357862 5.936994689372167 2.501966717764507 0 1 1
1784 2 5.383806246382706 7.109996682270243 12.92214850892855 0 0 0
2398 1 7.367898749130768 17.288787970519405 7.116799985009344 0 0 0
901 1 14.688217665649544 18.93179861853309 15.892102846626168 0 0 -1
902 2 14.9475270843956 19.852218603832153 16.1615493684625 0 0 -1
2429 2 8.432015070473698 22.728355748010536 7.073468614960094 0 0 1
2493 2 26.483084344666526 24.75422837115233 24.769026687409163 0 0 0
245 2 17.615275520047263 5.5226329937505945 13.024360332620933 0 0 0
2645 2 10.144741831989819 7.236407034320178 18.67076140410142 0 0 0
1600 1 15.532557653206686 7.536782075404375 24.85195778662514 0 0 0
79 1 2.9902895354705543 4.803542125843919 2.4892301120651537 0 0 0
367 1 16.42548947330441 11.07836713198618 19.952190508857054 0 0 -1
1564 1 14.85656712195326 14.857817594042675 19.770839200974116 0 0 0
317 2 19.990946486874687 26.574481661892666 26.966975055268495 0 -1 -1
5181 2 8.345229233483526 12.847818752179418 17.342363874064144 1 0 0
3001 1 19.598632488091383 30.625154334636687 11.677342286015648 0 0 0
115 1 12.889411690937921 12.174164565566862 4.9970418123296305 0 0 0
116 2 12.201463003487177 12.571911849327027 4.401596027903419 0 0 0
817 1 15.327312646177917 28.260100585679787 12.36363938985161 0 0 -1
724 1 11.967955648519064 9.650395455878593 1.6308936205420674 0 0 1
2415 2 11.160075528030923 12.28656896245009 11.974375483452805 0 0 1
1911 2 16.678937776439707 12.257029731730455 14.780615513268376 0 0 0
2323 1 10.712123588119885 26.90606628396539 0.5761699355548566 0 1 1
1066 1 16.195670027498 26.568698062576182 22.194227712772943 0 1 -1
1789 1 2.2056131412847475 5.2518947526317925 8.071097695634055 0 0 1
2216 2 18.921494108689693 23.040244076089802 2.672052967955008 0 0 1
1599 2 17.286099863239855 13.233877683049231 5.178732277265916 0 0 0
1846 1 17.07238428725551 12.224655868581538 1.4422851296960608 0 0 1
776 2 10.498062460138623 23.736284309600435 3.883246779031066 0 0 0
1280 2 22.672289367212144 12.568704889315978 25.170302662308977 0 1 -1
2506 1 8.63292641843118 22.080835680570495 4.481094378827589 0 0 1
1973 2 10.384540213507215 12.634476693997403 26.525153848106306 0 0 0
3618 2 15.085456366263847 30.839166537534673 11.191432272417861 1 -1 0
1673 2 17.249082714609894 21.87239807067156 13.44989125432597 0 -1 0
1034 2 15.005540103008249 19.34046850225329 3.0671837672646944 0 0 0
2338 1 14.237871899857685 10.965774049303374 11.840338348098665 0 1 0
2438 2 9.532417801919673 18.5847284640549 10.426341996299225 0 1 0
2515 1 26.734314583797342 31.693529500922736 17.02824960834901 0 0 0
348 2 6.8002156976283405 14.969090452673345 5.936324940026257 0 0 0
1235 2 11.624364752878726 6.0293807662567165 13.613430489642163 0 1 0
915 2 21.626202242782156 9.888343982629852 17.761162546457633 0 0 -1
155 2 16.67699890778427 6.006839536123388 11.071020434503342 0 0 0
2635 1 10.954458251007017 6.474152091028686 22.853561931645086 0 1 0
800 2 24.404911078287384 16.077054945754337 19.95434924497456 0 0 0
1234 1 10.947823531092503 5.5244382975595645 13.108044536318525 0 1 0
900 2 19.223906825620308 30.293238938112957 18.50490747115854 0 0 0
1572 2 5.810363995216322 8.670551901266807 14.291676139165718 0 0 1
196 1 14.200910405424613 26.748171316744752 14.59839238233587 0 -1 0
1602 2 16.007270755330016 7.431477622261686 23.99595493136393 0 0 0
210 2 19.430034313785967 7.329334286460801 21.99895128385681 0 0 0
1236 2 10.097397644905842 5.622115408145683 13.49061601527202 0 1 0
631 1 8.209251062257465 11.573258784956737 6.588013008377755 0 0 0
272 2 25.716211054189888 23.951462340780733 17.233622678947068 0 -1 0
1802 2 16.0267375750621 3.9157706630215703 6.882863361755238 0 -1 0
2574 2 17.468827455763158 17.06385168195122 11.14017369469172 0 0 0
1494 2 29.340039922076787 34.02803879677772 26.289288314397215 0 0 0
2636 2 11.00686904549355 7.373969343367218 22.440033525868255 0 1 0
1133 2 6.997904523265252 4.372517603991079 12.63913952001004 0 1 0
1907 2 11.545658544637918 18.074317224640694 3.4534958255842554 0 0 1
128 2 17.39949008531571 31.570293828159873 20.22722140662027 0 0 0
270 2 8.913253382947953 15.724247005210884 16.221673776073967 0 -1 -1
1840 1 13.229859346937946 17.22740366608606 20.326672777591494 0 0 0