LAMMPS data file via write_data, version 8 Apr 2021, timestep = 200000

6144 atoms
2 atom types

0.05251230509485235 59.85592207553809 xlo xhi
0.14017390189614373 28.200292098103738 ylo yhi
0.10630153907319628 27.30514346092754 zlo zhi
10.130555299283758 10.229982905565576 7.070109854649531 xy xz yz

Masses

1 16
2 2

Atoms # atomic

1 1 7.642867950337702 5.203584903147271 3.8525648870870683 0 0 0
2 2 6.854515942066493 4.594610478056526 3.7714148072945286 0 0 0
3 2 7.304342049933219 6.028652387372156 4.168142743628228 0 0 0
4 1 10.110603655410129 7.06139838018642 10.80589744297727 0 0 0
5 2 10.468973735542098 6.533001939266023 11.56431015280078 0 0 0
6 2 9.955149961268761 8.002248900173221 11.076944366211725 0 0 0
7 1 9.705046168833517 12.476712107854294 3.8939835199819948 0 0 0
8 2 10.199563716629212 11.963024960850827 4.5191019816671 0 0 0
9 2 9.60844837952596 13.293405173154408 4.459134200815436 0 0 0
10 1 12.351377900651562 13.87321244696383 10.92324185654588 0 0 0
11 2 13.103346598725322 13.734994279553327 10.334128426645327 0 0 0
12 2 11.57082597605983 13.339501954025257 10.524204786265164 0 0 0
13 1 14.869844340645907 5.534215901283707 4.134907486866749 0 0 0
14 2 15.377284604287572 5.046000097682252 4.908154051097168 0 0 0
15 2 14.556606301360459 6.449165651938191 4.331341618638766 0 0 0
16 1 17.449631865240423 7.200477891345739 10.876911385910086 0 0 0
17 2 17.77430210091931 6.828954261892155 11.72929526853357 0 0 0
18 2 18.260461616577786 7.252236679962042 10.351188366617164 0 0 0
19 1 17.015309462584717 12.496506707485647 3.8617261809558365 0 0 0
20 2 17.877374497232783 12.773974600177619 3.442196838916413 0 0 0
21 2 17.319588273654507 11.87998879703652 4.621204554384162 0 0 0
22 1 19.909715769551767 14.010946302283063 10.720778137973475 0 0 0
23 2 20.547784875939193 14.202353186770141 9.992955084939137 0 0 0
24 2 19.833740470475895 14.927889927901294 11.054794031152083 0 0 0
25 1 11.273500149150143 8.153497547311671 6.237305550071204 0 0 0
26 2 10.514159336148161 8.735409626637967 5.946874395818475 0 0 0
27 2 11.012678821816145 7.396780870728679 6.845938100903888 0 0 0
28 1 14.072749643765565 9.973773505215952 13.188004027530988 0 0 0
29 2 14.197878153284918 9.328847552413844 12.32763879560017 0 0 0
30 2 13.451763933748776 10.617761609994592 12.851722268839067 0 0 0
31 1 14.120846650115654 15.2066875800163 6.272883676208104 0 0 0
32 2 14.459329542117036 14.543282659058153 5.658484583225705 0 0 0
295 1 8.228245968191109 13.777127966141213 1.8062246504804529 0 0 0
113 2 15.67619388967377 6.794133911007886 13.538605857237327 0 0 0
37 1 19.081902694415636 8.303525719776127 6.25802879513496 0 0 0
38 2 18.45333867346941 8.79636588763279 5.674883247901538 0 0 0
39 2 18.42326815400785 7.786226381976318 6.799258645593632 0 0 0
40 1 21.372963967024116 9.93632771906858 13.306445025002708 0 0 0
664 1 34.553549789126244 7.969240339568415 9.460469881381371 0 0 0
42 2 20.76737092866405 10.347846864889782 12.627623988605643 0 0 0
43 1 21.40793251898892 15.293033030505127 6.256516397077589 0 0 0
2066 2 26.398208297405773 5.2483159096794925 18.521824922353925 0 0 0
46 1 24.24829302575214 17.031596723572992 12.959125509824528 0 0 0
1682 2 11.396820757657638 5.164061116063045 18.55560844835248 0 0 0
45 2 21.504022624388544 14.717776611054811 5.485297451936976 0 0 0
49 1 5.502243021984554 3.619781512478557 2.6273939979489342 0 0 0
50 2 5.597751523268756 2.7216914389739273 2.2564729931139857 0 0 0
51 2 4.70092783170964 3.599938345135497 3.297509756906718 0 0 0
52 1 7.896945081002614 5.614071977126668 9.749571098725218 0 0 0
53 2 7.578031829276285 6.0456375345511555 8.952510106220826 0 0 0
54 2 8.689835288095855 6.028172405974141 10.09675145920421 0 0 0
55 1 7.399869510264888 10.566846557088764 2.7651580552179165 0 0 0
56 2 7.81687939746045 9.731333457466334 2.3256205148414457 0 0 0
57 2 8.252333928979306 10.956380184596576 3.016040895995992 0 0 0
58 1 10.237280392832261 12.583051318367023 9.793855327458083 0 0 0
59 2 9.967611657421257 12.728017667405272 8.82316091751774 0 0 0
60 2 10.583015205148701 11.681876740083803 9.624897984472703 0 0 0
61 1 12.502125531600061 4.048765334956093 2.998579143766406 0 0 0
62 2 13.377732269572517 4.378610239020287 3.175505791270142 0 0 0
63 2 12.193511288756836 4.270366086907526 2.108047505238288 0 0 0
64 1 15.271510323141479 5.683258848443221 9.99044917060036 0 0 0
65 2 16.069187409207135 6.161187078737736 10.184878709932892 0 0 0
66 2 15.621770398687188 4.86954172463953 9.566654129949345 0 0 0
67 1 14.901440903435942 10.733275676653763 2.7153584392081567 0 0 0
68 2 15.60674985458825 11.371783107614762 2.9975461366614797 0 0 0
69 2 15.343377602118 9.990973348531282 2.205195983584735 0 0 0
70 1 17.895615919208907 12.546682341633147 9.50013615400224 0 0 0
71 2 17.499945724228727 13.056479562033312 8.783394447925149 0 0 0
72 2 18.54450613936166 13.117926248489907 9.962475472354331 0 0 0
531 2 20.843651974469 1.580071709841797 5.0194123811272835 0 0 0
76 1 3.4485198171629667 2.5438719579076117 7.490230686944557 0 0 0
79 1 3.6938368406908793 7.90920424415469 0.7205577248669782 0 0 0
1685 2 15.315440284388721 6.835270708541165 25.66648263214479 0 0 0
81 2 4.27711307437872 7.258449009301964 1.033713601794382 0 0 0
2208 2 42.7976556633968 18.5482043486381 22.357536068219986 0 0 0
84 2 7.092251807656373 9.104442801449764 7.837904541043742 0 0 0
1568 2 19.549463895885477 19.129004572856676 20.424946779627472 0 0 0
87 2 8.427436733782597 1.4295082431267212 1.225644411919417 0 0 0
88 1 10.90782402533162 3.0247506143487506 7.414354053660459 0 0 0
90 2 11.244226399648312 3.791029345749473 6.890841459611974 0 0 0
91 1 11.235828621537655 8.30379950431839 0.8541064838796907 0 0 0
93 2 11.885803805837456 7.78019303752065 1.337947670385167 0 0 0
94 1 13.714339238104058 9.677194357248025 7.616377315932099 0 0 0
95 2 14.341659370152104 9.042916131432486 7.997991584050051 0 0 0
96 2 13.092552287173655 9.059351348442247 7.23382909419992 0 0 0
97 1 5.427847278840576 4.423933596631602 5.906573845096475 0 0 0
98 2 5.881801791868542 4.983800823335336 6.591077613495369 0 0 0
99 2 4.661061459117013 4.0519391003952165 6.344662905565385 0 0 0
100 1 7.703686015623656 6.395627570414581 13.100021704015406 0 0 0
101 2 7.298797954766091 6.898826920002666 12.320351736577294 0 0 0
102 2 8.229543735533412 5.661799062034221 12.671405806047886 0 0 0
103 1 7.6516374782017476 11.466535456139555 6.2606307947308615 0 0 0
104 2 7.373880698339073 12.027390236129403 5.459513311788252 0 0 0
105 2 6.851788248729845 10.87569529070214 6.4938233152448515 0 0 0
106 1 10.074137322309296 13.251761661460074 12.770429943384222 0 0 0
107 2 10.653466007291957 13.790267747850203 13.3836821302416 0 0 0
108 2 10.60753304112655 12.579564566746336 12.26344423057513 0 0 0
109 1 12.623180399294087 4.639524654391547 6.3169200002347 0 0 0
110 2 13.047795394208459 3.887291647596215 5.882623854518676 0 0 0
111 2 12.336568651174797 5.180206325793583 5.519713660633285 0 0 0
112 1 15.265886008431734 6.257681779918568 12.85569873237359 0 0 0
114 2 14.514573236576581 5.7885934963649195 13.26091905955515 0 0 0
115 1 15.117716793262003 11.461396465385889 6.025755229590574 0 0 0
116 2 14.536226393667329 10.847106258375952 6.6094649592379255 0 0 0
117 2 15.509373804434151 12.052739185815103 6.6765709487053195 0 0 0
118 1 17.98006367407804 12.880972515625196 12.855098227086636 0 0 0
119 2 17.285664848139348 12.330675108914969 13.284465979067564 0 0 0
120 2 17.61006526858533 13.58645112519819 12.298337666981046 0 0 0
121 1 3.4420365297835605 3.1476329879336586 4.112956466803726 0 0 0
123 2 3.824016955675613 2.345446271305687 4.408133202468139 0 0 0
124 1 5.57683976456348 4.78441843899078 11.157160683766419 0 0 0
125 2 6.386985697120754 5.306528190685581 10.965172629700008 0 0 0
126 2 6.0137286965589505 3.923097285032514 11.505245030813356 0 0 0
127 1 5.463532772629534 9.85320995625596 4.430516041189957 0 0 0
150 2 9.921949523174273 3.8003429143653196 12.606741495912107 0 0 0
129 2 6.209778387237662 10.08105939258799 3.856981974072123 0 0 0
130 1 8.075335452757676 11.602130600011465 11.032135361302604 0 0 0
5040 2 14.662433146818591 19.972516958336822 25.928651002728753 1 0 0
132 2 8.618479850597222 12.287269195537819 10.628680760848557 0 0 0
133 1 10.486524186906363 2.802378837818591 4.059745980065713 0 0 0
134 2 10.896853477861274 1.9365419345019044 4.326314783980792 0 0 0
135 2 11.165548653675286 3.3768962013361645 3.5768414361838037 0 0 0
136 1 12.86613825191631 4.972367992842967 10.96657017951545 0 0 0
137 2 13.781692500757678 5.226825726161537 10.786758578164257 0 0 0
138 2 12.556068462574327 5.316163818205684 11.837557459421465 0 0 0
139 1 12.728490857881642 10.140192568940222 4.2321481600747095 0 0 0
140 2 13.51339428158488 10.281128091138113 3.6777904657553786 0 0 0
141 2 13.128367293653245 9.38780655108212 4.7129717118055545 0 0 0
142 1 15.888981680085585 11.823590289577078 10.878899638875541 0 0 0
143 2 16.645495763821636 12.121180109334274 10.372526696854484 0 0 0
144 2 16.26331989032009 10.99419756672222 11.25324301352751 0 0 0
145 1 6.809319954658806 2.183481066374506 5.189858852671811 0 0 0
460 1 18.449454216353093 2.5456025098810326 7.622565912705253 0 0 0
147 2 6.5624970008116765 3.111428156242028 5.504523050336242 0 0 0
2129 2 39.11988615066798 7.810779917594789 23.835340481748503 0 0 0
149 2 9.391330739090565 4.296578997336343 11.298628465957297 0 0 0
1618 1 11.074342341879118 13.429652328858966 21.056867495021528 0 0 0
151 1 9.319479867796565 9.509347227268417 5.1226042567420365 0 0 0
152 2 9.012626466989612 10.384649502812351 5.531918749417727 0 0 0
153 2 9.613321245951461 9.794294293022475 4.265463351217105 0 0 0
154 1 11.769142451438407 11.146035064871134 11.87329949637667 0 0 0
155 2 11.232702447060147 10.344186361001784 11.917364091118852 0 0 0
156 2 12.254451578541852 11.096009825332679 10.987773972839925 0 0 0
157 1 13.980549421992443 2.5125128423013745 5.46539804485035 0 0 0
546 2 32.369004591648576 3.6939057010060203 12.620142273755405 0 0 0
159 2 13.946786612758153 2.556748649861626 4.477443793993378 0 0 0
160 1 16.741510958616125 4.055225716989457 11.86405078391763 0 0 0
161 2 16.082492996634308 4.772648494801492 12.094121467858137 0 0 0
343 1 6.975033071130259 13.299133381126124 4.286745886134542 0 0 0
163 1 16.840321646637037 9.407412616601803 5.073758732726371 0 0 0
164 2 16.43860893978783 10.266242665758977 5.341726912909207 0 0 0
165 2 17.06702155279895 9.466271890110278 4.118372165181138 0 0 0
166 1 19.587916888645534 11.16531222537628 11.840006582386977 0 0 0
167 2 19.02276744031543 11.856593836669864 12.222701679186931 0 0 0
168 2 19.86788637432076 11.426455607789965 10.942338524059522 0 0 0
169 1 9.053531875992391 4.597991342806049 5.857155311736849 0 0 0
170 2 9.693118477528444 3.957630934897314 5.3775840180485455 0 0 0
171 2 8.305918930381436 4.692465314078845 5.190361494101444 0 0 0
172 1 11.500605557090168 6.2350929979192 13.119656432894045 0 0 0
173 2 11.966407831496833 7.006572244653097 13.508303214372757 0 0 0
206 2 16.234797881680464 2.7331499014267213 3.215558927952189 0 0 0
175 1 11.356904376098218 11.699159832573319 6.184815189821892 0 0 0
176 2 11.978677593329758 11.240703554233935 5.64147857985109 0 0 0
177 2 11.818878684320095 12.450916299486344 6.579242150716444 0 0 0
178 1 14.294628742287626 13.149518194747387 12.81557692210524 0 0 0
179 2 13.509131588490563 13.193471304503106 12.251663783814243 0 0 0
180 2 14.969302439047643 12.653419736414047 12.278790987287985 0 0 0
181 1 16.430248286292773 4.537955715040741 6.164699534321754 0 0 0
182 2 17.104528371173373 4.276957269141132 5.517274479070442 0 0 0
183 2 16.78491547921925 5.25445612935182 6.816580934131527 0 0 0
184 1 19.021351207585028 6.161139836449115 12.7974843051618 0 0 0
187 1 18.80952472766339 11.432426229535928 6.00607138931184 0 0 0
188 2 18.514865887280692 11.003638706364137 6.80934071618093 0 0 0
189 2 19.535577371643363 12.057997767747548 6.298211308637539 0 0 0
190 1 21.28856732087991 13.39110500495544 13.05014831433896 0 0 0
192 2 20.803994272254553 13.523593481545742 12.24756584232357 0 0 0
193 1 8.226048875534751 2.325370181583303 2.76351780623876 0 0 0
194 2 7.4758197050993935 2.2156451806665327 3.4248644048136634 0 0 0
195 2 9.023355529478579 2.35882642489327 3.2959145144649153 0 0 0
196 1 10.495567624852715 4.454078732986566 9.631030188765797 0 0 0
197 2 10.550945673353622 3.956617800108206 8.771139957515109 0 0 0
198 2 11.410905864523786 4.581401110059444 9.928389226229566 0 0 0
199 1 10.52543287151091 9.98489587044342 2.6801671463354766 0 0 0
200 2 10.54120029550122 9.411355987372666 1.9376793842120192 0 0 0
201 2 11.316658212686301 10.03231947537061 3.1986662774158576 0 0 0
202 1 13.610586733052084 11.352914568470462 9.647317963010888 0 0 0
203 2 14.526174916709346 11.475207423635062 10.02947695275124 0 0 0
204 2 13.510259412764334 10.612862922896793 9.035869225565229 0 0 0
205 1 15.455336430959303 2.8320289184122265 2.699185728975863 0 0 0
207 2 15.449611743287319 1.9697166931165613 2.2180520992900172 0 0 0
208 1 18.205586938081552 4.53452970756612 9.44157618692608 0 0 0
209 2 17.8301652679397 4.400433009640571 10.341832303712396 0 0 0
211 1 18.216096022200286 9.622189984430664 2.537333525727504 0 0 0
212 2 18.014303111772644 9.050675994972652 1.6984655952507552 0 0 0
213 2 17.933204022317632 10.48594827497807 2.164502140351694 0 0 0
214 1 20.877385837503198 11.507291749786436 9.458261906671366 0 0 0
215 2 21.74033802734183 11.541322209786378 9.901312109181692 0 0 0
216 2 21.061766527076433 10.812755514629124 8.731945479271806 0 0 0
217 1 6.053909053404107 1.0335658906101746 1.7039993547068681 0 0 0
2204 2 39.81728861123094 16.426461159908097 15.554643495481391 0 0 0
219 2 6.13427826376288 1.1840400427348423 0.7792366546246163 0 0 0
220 1 7.9426751908328095 3.320549793969209 8.037629254871428 0 0 0
221 2 8.015985973335312 3.993471892489472 8.682826308836963 0 0 0
222 2 8.316250612885348 3.729439912740782 7.212680274363046 0 0 0
223 1 8.024623312650077 8.232471787201192 1.7061542412790702 0 0 0
224 2 8.737088741845222 7.620931444303421 2.0219124171722593 0 0 0
225 2 8.159106479256634 8.382766631886842 0.7343736393241346 0 0 0
226 1 10.590548762274173 10.006590334654952 8.351188415420923 0 0 0
227 2 11.371359504603326 9.470984966814939 8.594887318901357 0 0 0
228 2 10.859350466997245 10.497340857243001 7.553836017061477 0 0 0
229 1 13.190985716560178 1.1236373139526417 2.156301677838242 0 0 0
1658 2 7.981005924228776 6.797355760150488 18.497640461992503 0 0 0
231 2 13.245265792475024 2.043668412778912 2.372623247109398 0 0 0
232 1 15.506141475592814 3.3281762629853597 8.462671999166016 0 0 0
5280 2 12.834717435994255 17.794910372625438 22.474077328787807 1 0 0
234 2 15.821850834934704 3.434748946330694 7.5654394754387875 0 0 0
235 1 15.597821269062608 8.418808271318179 1.6093413462677097 0 0 0
236 2 15.719336559293714 8.451220670102387 0.6679183612230701 0 0 0
237 2 16.247336543323808 7.742426592066861 2.0487421484666943 0 0 0
238 1 18.070349780997248 9.862497468955349 8.690698968158369 0 0 0
239 2 18.918192024066578 9.487761461833903 9.079280431817255 0 0 0
240 2 18.10344846215141 10.820043066083139 8.812529592248232 0 0 0
241 1 7.721876025887662 4.579329549582846 0.9954886459865996 0 0 0
242 2 8.008286689616984 3.892217777959648 1.7431572417141414 0 0 0
243 2 7.105566179215177 5.221443863930977 1.4510312698082497 0 0 0
244 1 9.970945569068972 6.435231130610519 7.915177151324684 0 0 0
245 2 10.371637962312748 5.944873349480265 8.633231839652215 0 0 0
246 2 9.700282968521131 5.757564508911644 7.256053567971092 0 0 0
247 1 9.904181630860656 11.904809118126463 0.8340494020893223 0 0 0
248 2 9.330228402278063 12.57465067235065 1.2369897091044122 0 0 0
249 2 10.226826508763839 11.418564894303874 1.6243474576398635 0 0 0
250 1 12.730311588987863 13.493667515362882 7.615515283496411 0 0 0
251 2 13.284004552952567 13.056998866780662 8.30860064522656 0 0 0
252 2 13.204109176677834 14.273539655762667 7.29759923265613 0 0 0
253 1 15.092935025828117 4.719894569040764 0.9755512582844356 0 0 0
254 2 15.090681907385338 4.004838994733453 1.705292879715192 0 0 0
255 2 14.483428449394166 5.367722405611129 1.3525821117614736 0 0 0
256 1 17.323647247933785 6.475292953725429 7.695073082325319 0 0 0
257 2 17.868381151799152 5.9754735316516925 8.383707569690511 0 0 0
258 2 16.840309126895583 7.184507323165918 8.191303772819092 0 0 0
259 1 17.299589895592167 11.664999723563946 0.8812250830490761 0 0 0
260 2 16.661288559976565 12.336002128513204 1.1569762755715651 0 0 0
516 2 22.79753612052569 11.956729825138298 12.0814667775722 0 0 0
262 1 20.205552247292765 13.342277967621614 7.533874465835609 0 0 0
263 2 20.28457995142252 12.867024038470978 8.347081057274853 0 0 0
264 2 20.88915285943619 14.011191032281152 7.385860183682439 0 0 0
265 1 9.930363894833821 6.33408733491667 2.4433988773513233 0 0 0
266 2 9.167434179315437 5.786780019834529 2.723582632415328 0 0 0
267 2 10.31740520797369 5.746633894528635 1.7377423681280872 0 0 0
268 1 12.380909594021295 7.834568205509547 9.674891509906962 0 0 0
269 2 12.852448836192128 7.147529766359 9.137629583042976 0 0 0
270 2 11.533901723106338 7.455906071109115 10.111428204886101 0 0 0
271 1 11.857351630366596 13.253524611027471 2.551394210775617 0 0 0
272 2 12.56183064764813 13.091881074516177 3.225701713351295 0 0 0
273 2 11.011291788785442 12.971719813469486 2.9839624494379375 0 0 0
274 1 14.772964058653125 14.53261871741229 9.583889677949857 0 0 0
275 2 14.28937738588395 15.302868363744256 9.210198953607078 0 0 0
276 2 15.414827648227622 14.926183855134862 10.25370042273373 0 0 0
277 1 17.01513289145499 6.373820309750054 2.7617520924005645 0 0 0
278 2 16.11937611501875 5.903408998183178 3.0423107758870254 0 0 0
280 1 19.786276565633262 7.919522469737237 9.686532026191669 0 0 0
282 2 20.473171609467887 8.029461390471548 10.348194149769215 0 0 0
283 1 19.34186881666591 13.440451323081714 2.758999346887802 0 0 0
285 2 20.146117931298775 13.582716859010118 3.19924802569606 0 0 0
286 1 22.147659613631383 14.876744138375715 9.440488231122451 0 0 0
287 2 22.70593529820361 14.848054169289034 10.253493977230752 0 0 0
288 2 21.79665901824461 15.715503289570314 9.170233915900257 0 0 0
289 1 6.003054097101327 6.534345379346275 1.7640691580562824 0 0 0
290 2 5.539017864544867 6.518710701901343 2.6649791207750115 0 0 0
291 2 6.650689363177147 7.277617777159312 1.816236763109424 0 0 0
292 1 8.320834323071454 8.482429430359598 8.952738355254228 0 0 0
293 2 8.952538644762297 7.892776513267137 8.5545402263271 0 0 0
294 2 8.875039044671162 9.30838452109572 8.790595641865927 0 0 0
2127 2 36.7779823564008 6.0977756929269145 16.81671469581399 0 0 0
296 2 8.056994209713094 13.57345474147617 2.752217498934998 0 0 0
671 2 37.78991749739208 15.06291513605701 10.395104422845641 0 0 0
298 1 11.161455667402699 15.557483472847508 8.660799981710555 0 0 0
299 2 11.441379362552894 14.711877309423542 8.297495352674634 0 0 0
1765 1 17.963509794417913 5.264235155071745 15.100063342732206 0 0 0
301 1 13.301312347725885 6.92535043495971 1.9195450223939343 0 0 0
302 2 12.949973494880792 6.851686207762495 2.8199857056760718 0 0 0
303 2 14.11288036786011 7.506110974678209 1.8451974267287903 0 0 0
304 1 15.895106489080861 8.47109804719117 8.911527703287488 0 0 0
305 2 15.521270571141642 8.325721771879161 9.771942207591964 0 0 0
306 2 16.515771792602777 9.211806563943261 8.91759286267346 0 0 0
307 1 15.573785697620803 13.721845955353016 1.6466424389928929 0 0 0
1579 1 26.651738909769335 18.74406382968038 20.00514346778511 0 0 0
427 1 36.586047039077506 14.968129834235961 6.157670803067253 0 0 0
310 1 18.72189857173648 15.650590421185514 8.257024086799854 0 0 0
311 2 18.90073192743856 14.767699477472497 7.915271406737911 0 0 0
148 1 9.15348997309443 4.310015372071737 12.202866586454158 0 0 0
313 1 3.483576577839174 4.545395366085784 0.7249971929874471 0 0 0
314 2 3.1859097632634747 3.6909909599179955 0.2173547529717565 0 0 0
315 2 4.208692982396513 4.160336743149421 1.2980640665571337 0 0 0
316 1 6.393294682925143 6.274212300489854 7.765389270601368 0 0 0
317 2 6.6488198710685165 6.974114776884191 7.0991159648630635 0 0 0
318 2 5.706606377035985 6.623811477935292 8.40270674329297 0 0 0
319 1 6.31239817747688 11.990952342944821 0.7533791946299263 0 0 0
320 2 5.806950541349789 11.201256536936567 0.337195441771868 0 0 0
321 2 6.744382330363764 11.72776198040304 1.5715439235375035 0 0 0
322 1 8.85953163679144 13.40432727596461 7.366793334192255 0 0 0
323 2 8.197969615743208 13.940680283915242 7.848945305619479 0 0 0
324 2 8.300977511669942 12.625871614453203 7.111888792118035 0 0 0
325 1 11.402279822452945 4.69835031607914 0.7512911500957393 0 0 0
339 2 3.57151561756336 6.547144305722502 3.654423029827321 0 0 0
328 1 13.87415808314376 6.7866220924691545 7.742269579485072 0 0 0
329 2 13.436116717560553 6.029175263144373 7.3104192192665085 0 0 0
330 2 14.598644222071119 6.465139036563257 8.235470989459268 0 0 0
331 1 13.584897731704718 11.860551149116002 0.5708872371449062 0 0 0
332 2 12.77439211868469 12.005283248245448 1.196739934375111 0 0 0
333 2 14.335498976583342 11.642942637756255 1.204184097228228 0 0 0
334 1 16.23152142784525 13.62808747035759 7.577997154129216 0 0 0
335 2 16.515004050448788 14.135593895134576 6.802975381198614 0 0 0
336 2 15.62859030000961 14.153571047422021 8.159829484824575 0 0 0
337 1 4.490157830783479 6.6076039233536035 4.139554741990795 0 0 0
338 2 4.624125146366585 5.777718777596417 4.657864570226698 0 0 0
279 2 17.3357992650448 5.859604618119252 2.017340655864136 0 0 0
340 1 6.67436825789709 8.017187116936993 11.086821367218365 0 0 0
1766 2 17.141979695477627 4.699582847155006 15.034287576839208 0 0 0
342 2 7.524645815332784 8.144541869932821 10.6820950963442 0 0 0
457 1 15.92189622376627 0.8494115267150197 0.5904468186567355 0 0 0
2135 2 41.0805001908041 14.251085373329266 22.4759206749682 0 0 0
185 2 19.334824060270105 7.062836082511277 13.072665888828535 0 0 0
346 1 9.477404840391292 15.48071997515408 10.968176103585108 0 0 0
347 2 10.215104442741126 15.67214153632215 10.35866291624613 0 0 0
348 2 9.650069535912623 14.632991837463258 11.346446300761139 0 0 0
349 1 11.977299613245894 6.548993446453432 4.306460500647624 0 0 0
350 2 11.564583963514409 7.253291995895695 4.870267920656003 0 0 0
351 2 11.179484355102987 6.322392482264399 3.7451396660413088 0 0 0
352 1 14.44970222100602 8.34180783636339 11.24236747333571 0 0 0
353 2 14.876462385647983 7.5685977794954455 11.642766270384426 0 0 0
354 2 13.654680590801807 8.089827736784484 10.664882314960204 0 0 0
355 1 14.143363838161294 13.40105964149851 4.297442836783621 0 0 0
356 2 14.381089375505962 12.60888515969786 4.771705216903106 0 0 0
357 2 14.805171309223267 13.421572976534618 3.5831215187989627 0 0 0
358 1 17.04271722890242 15.069188748303688 11.20015958988167 0 0 0
359 2 17.08133425312355 15.859873508533164 11.803724886572985 0 0 0
360 2 17.735414843509737 15.298176703059488 10.598003062885631 0 0 0
361 1 7.226112338299935 7.690502599974267 5.491332660304962 0 0 0
362 2 6.60330594801965 8.35841508447065 5.133333408185772 0 0 0
363 2 8.080993959274414 8.157988943859774 5.3634663768083275 0 0 0
364 1 9.70025249998624 9.444204371587263 11.968293760842922 0 0 0
365 2 9.216015700086624 10.17606223524867 11.547496587847144 0 0 0
366 2 9.22317806989668 9.06634092657331 12.793053225057179 0 0 0
367 1 9.585517266658321 14.828852869729602 5.173349763755534 0 0 0
2199 2 38.05423273980056 9.817192774766772 16.74083620667089 0 0 0
369 2 9.117549067102502 14.568060955323658 6.030027483233217 0 0 0
370 1 12.339027613042802 16.287072833847347 11.998455395972648 0 0 0
1836 2 15.134662569951024 19.067952592111617 21.829289845277895 0 0 0
372 2 12.44546365487465 15.451499096224024 11.52046000974871 0 0 0
373 1 14.258046072290368 7.93953786441 4.9751162567285006 0 0 0
374 2 15.115618858222929 8.384799803829432 5.071346584401291 0 0 0
375 2 13.883840736613605 7.538250368190478 5.830322609989647 0 0 0
376 1 17.241811897905613 9.763475512638337 11.887839742794187 0 0 0
377 2 18.22398515203141 10.001800867077591 11.733364330857745 0 0 0
378 2 17.228334082689948 8.943220834066805 11.310542616272967 0 0 0
379 1 17.10338824865977 14.860709650408772 5.159050786807541 0 0 0
381 2 17.07017122592216 14.093293396926402 4.596434272309139 0 0 0
2069 2 28.58671536567277 6.940563503080588 25.395144265613464 0 0 0
597 2 33.29004620015077 9.053878067007123 2.391658973271288 0 0 0
384 2 19.432047603895533 16.224931436830357 12.890108492197578 0 0 0
591 2 31.6110180067565 2.7280056352361917 3.206092596809737 0 0 0
1609 1 6.127432630331356 4.3630683358013425 14.211883389532442 0 0 0
210 2 19.146688794169226 4.54723579616085 9.76831815081767 0 0 0
284 2 19.575445050385596 12.825543766823753 2.0094613953768032 0 0 0
1611 2 6.565202347824278 4.9150419496291065 13.50702858920748 0 0 0
1722 2 23.639127298462828 9.085320324835596 27.05321390330168 0 0 0
74 2 11.782911496576165 8.23987067527677 27.20011802018687 0 0 -1
1877 2 12.266958392260888 12.36318302659302 24.884041628267006 0 0 0
468 2 20.529372707275904 9.315514237505498 6.948007783678358 0 0 0
512 2 19.695171930243447 10.497831065977925 5.013900053011288 0 0 0
2136 2 41.816045150435095 15.138393600872215 23.495357129145653 0 0 0
174 2 11.206432378664541 5.767608785225199 13.92492993106697 0 0 0
261 2 16.96506630385513 11.082885388637573 0.12817192016784978 0 0 0
186 2 18.72249242628723 5.70756200021041 13.599856184227997 0 0 0
92 2 10.621102449106106 7.713764187812321 0.4536638177531965 0 0 0
722 2 18.473257647009117 6.547439938662394 4.01262047889579 0 0 0
1617 2 9.025329729678099 12.205823243037475 13.792716379276536 0 0 0
86 2 19.380538088098852 8.36634765310651 27.068777220808116 0 0 -1
1857 2 12.019244509595566 15.454983520446433 13.615575657531327 0 0 0
1537 1 12.605869429544171 8.875196627682968 17.787567723885953 0 0 0
1538 2 13.120241473219734 8.510834866729992 18.58413390447641 0 0 0
1539 2 11.919495801698925 8.26110036951389 17.49066547678898 0 0 0
1540 1 15.21921276142716 10.962381126698794 24.308800986835386 0 0 0
1541 2 15.004983210785925 11.799053419728256 24.721946975968578 0 0 0
1542 2 14.400443053673548 10.503197102030281 24.110332137843514 0 0 0
1543 1 15.328815332188285 15.933274323756727 17.62430526997184 0 0 0
1544 2 15.915185328856776 15.535049106939168 18.357064549328662 0 0 0
1545 2 14.893950232322156 16.780178989862353 18.023241159149517 0 0 0
1546 1 17.612838873346817 17.589096651816302 24.70760024070092 0 0 0
1547 2 17.557919395759445 18.442593397734054 25.16262856843218 0 0 0
1548 2 17.973570816161025 17.046677146887504 25.398281031787523 0 0 0
1549 1 19.736491370872542 8.97622731103488 17.628794000968412 0 0 0
1550 2 20.466157408202477 8.994432177124958 16.941181858180403 0 0 0
1551 2 19.732209017742093 9.805963616270175 18.108385896837788 0 0 0
1552 1 22.400546328879813 10.409639584067673 24.329876723021297 0 0 0
1553 2 21.763987075438216 9.84668860469511 23.89323541412918 0 0 0
1554 2 22.718708871380795 9.81653910805723 25.05826796939923 0 0 0
1555 1 22.644361213251656 15.836024815981753 17.629040453962073 0 0 0
1556 2 22.309129396689954 16.663320759446066 18.011713253936083 0 0 0
1557 2 23.329313531098446 16.01163278535977 16.966358146316118 0 0 0
1558 1 24.861876790565375 17.780028363535347 24.17378868646854 0 0 0
1559 2 25.658924852495552 18.051063064571643 23.575086536253647 0 0 0
1560 2 24.638062314690718 18.630831061561455 24.61112441791011 0 0 0
1561 1 16.81121728331249 11.875119776431498 19.82423925975209 0 0 0
1562 2 17.19132839865997 11.223123536667895 19.11951787558505 0 0 0
1563 2 16.01558567606512 12.215158258055054 19.364626362513672 0 0 0
1564 1 19.14225753247223 13.488698888540409 26.539080596086702 0 0 0
1565 2 19.404165820408625 12.844762714379709 25.79969349039192 0 0 0
1187 2 27.262989520772468 3.5713835391149793 13.246665741529354 0 1 0
1567 1 18.87365772505256 18.6119245605165 19.932953236515036 0 0 0
1570 1 21.77711048927627 20.574486020006052 26.6310430440399 0 0 0
1573 1 24.149979324723713 11.696580777371473 19.99962453683687 0 0 0
1574 2 23.399584436852145 12.018812028863621 19.46928934056076 0 0 0
1575 2 23.729783580064247 10.908410953844946 20.40197227874241 0 0 0
1576 1 26.714654358692638 13.526211237643256 26.619886343666288 0 0 0
1578 2 25.98689516444343 13.997560511728086 26.252926916876973 0 0 0
80 2 3.0658252720616557 7.413375713159201 0.18819189944348444 0 0 0
1582 1 29.29860476175374 20.55391804901852 26.670184331669915 0 0 0
1814 2 22.373672681555597 9.187199160431497 15.490834996582665 0 0 0
1585 1 10.35837828915719 7.609830956587758 16.51826226528672 0 0 0
1586 2 10.408148609743003 6.774582056082547 16.02689552486887 0 0 0
1587 2 9.840662129048479 8.236302825192977 15.948728075717655 0 0 0
1588 1 13.177231105507898 9.139925585868546 22.84130487517765 0 0 0
1589 2 12.600223322773417 9.396894967469938 22.012468792101892 0 0 0
1590 2 13.446547968644657 8.170793713342203 22.724808797209203 0 0 0
1591 1 12.970538777466416 14.227936825028637 16.486733008191877 0 0 0
1592 2 12.316824343043658 14.097245330902892 17.18631970206102 0 0 0
1593 2 13.709191894053594 14.692228458082628 16.896706773431422 0 0 0
1594 1 15.498969655432367 16.118897077479 23.33190194236903 0 0 0
1595 2 14.723078453632478 15.95415620865166 23.97888389183179 0 0 0
1596 2 16.132064659250474 16.671522611576915 23.773764208330295 0 0 0
1597 1 17.415796057501762 7.434850598856183 16.61482201132795 0 0 0
1598 2 18.248018513006965 7.870474690998705 16.88622917889975 0 0 0
1599 2 17.39566566330903 7.848528070599761 15.727051479687335 0 0 0
1600 1 20.41902961822711 9.082604943007603 23.07466654731579 0 0 0
1601 2 20.783630786529002 8.227907904073891 22.672048881082564 0 0 0
1602 2 19.748526143589064 8.866843392602329 23.761495466540172 0 0 0
1603 1 20.534134389410095 14.482233195836127 16.569865832383588 0 0 0
1604 2 21.20665552171269 15.145912208934513 16.941804599752157 0 0 0
1605 2 20.27468222951808 14.795834723467015 15.702101406575926 0 0 0