LAMMPS data file via write_data, version 3 Mar 2020, timestep = 0

2016 atoms
2 atom types

0.0000000000000000e+00 1.7958007545415619e+01 xlo xhi
-1.7945360187596506e+00 4.6790695995676977e+01 ylo yhi
0.0000000000000000e+00 1.9095157052573935e+01 zlo zhi
4.6517055793264601e-02 -6.6928087602928237e+00 -2.3056768937401273e-02 xy xz yz

Masses

1 16
2 2

Atoms # atomic

579 2 2.0290976514242276e+00 4.6353853788222050e+00 1.5766166969054314e+01 0 0 0
223 1 -1.3686777646988677e+00 6.0794822218673357e+00 1.8778417591514064e+01 -2 0 -2
995 2 7.9848800689114370e+00 7.4552663390425042e+00 9.9231357916303331e+00 3 0 1
654 2 -7.2981198645981549e-01 5.1168855985422699e+00 4.1006404303982222e+00 -1 0 0
394 1 1.0144034893259770e+01 4.2541393527069111e+00 3.1796120663244154e+00 -3 0 -3
578 2 3.0291414052431627e+00 4.6519379643191465e+00 1.7001914182926203e+01 0 0 0
929 2 1.4405336161724192e+01 2.7657243543802608e+00 6.1274639027966593e+00 0 0 0
513 2 7.9013222437864981e+00 -8.3421959560290448e-01 1.5146213813219909e+01 1 0 0
705 2 -2.6992215994210298e+00 5.8034915158175115e+00 1.3809213979743403e+01 -2 0 -1
302 2 3.3226497955281475e+00 5.9791476305720659e+00 1.8798997153686116e+01 0 0 -1
299 2 1.1642805956010857e+01 9.8746261418051740e-01 1.7036415518998322e+01 -3 0 -2
896 2 9.4871794519779176e+00 6.8558198823755738e+00 1.8415123498235840e+01 -1 0 -1
150 2 9.2613225421963392e+00 8.0316884047861112e+00 1.6525490368886022e+01 -4 0 -1
406 1 2.8655827823040894e+00 1.1166583611142675e+00 8.0450957296027017e+00 -2 0 -2
504 2 4.3475848187340826e+00 -1.2338680294662363e+00 9.1565663970114031e+00 0 0 -1
596 2 2.4515006652565248e+00 5.4678586185739135e+00 5.3985639598658217e+00 3 0 -2
736 1 1.2994045669595392e+01 1.0286968483452705e+01 5.5111623912819745e+00 -1 0 1
559 1 8.4306698024249407e+00 -1.3506428154751915e+00 6.9829590004554802e+00 -2 0 1
881 2 1.2407826773809765e+01 1.2897163246038303e+00 8.7755707019703806e+00 -3 0 2
319 1 1.1131544356469021e+01 -7.3573824880319938e-01 1.4409038868931908e+01 -4 0 -3
53 2 1.0004741133701478e+01 1.7323597138228766e+00 1.6423748023489861e+00 2 0 0
917 2 5.1455053059213665e+00 -5.9033838106317327e-01 2.5848295886317358e+00 1 0 3
609 2 6.8534429392773077e+00 6.8030832571058442e-01 2.8839403990737780e+00 -3 0 0
1583 2 -4.8992725797139487e+00 9.9054963889407244e-01 1.5134214679390205e+01 0 1 1
122 2 7.8620745623085728e+00 4.7139461668718026e+00 1.3781783590379248e+01 -2 0 -1
295 1 6.8538447930298163e-01 7.7450067546777479e+00 2.6189205850986150e+00 2 0 3
407 2 2.3897094869676865e+00 3.6837878595448315e-01 8.4527339536115154e+00 -2 0 -2
707 2 1.2674922360210239e+00 7.1840644283282025e+00 1.4610397299649177e+01 -1 0 -1
972 2 3.9323194514254896e+00 7.4887015281048619e+00 1.9632675680123362e+00 0 0 1
448 1 5.9832511571037408e+00 5.0511346505834807e+00 1.0606383087108016e+01 -1 0 1
244 1 1.0867655287744482e+01 7.3990560462383197e+00 1.3134380717203253e+01 -4 0 -4
978 2 6.1343517427445331e+00 -1.2191638799706848e+00 1.6944474756798190e+01 -3 0 -1
687 2 2.5180512405028397e+00 -8.3280095258047748e-01 1.0366497697962181e+01 -3 0 0
230 2 1.3302744379596834e+00 -1.5250928307958631e+00 6.9160494983552896e+00 0 0 -2
335 2 9.0354411733501880e+00 8.6564322624161179e+00 4.3589771353416245e+00 -2 0 -2
301 1 3.4155666005717205e+00 5.0641622100696608e+00 1.8483570533875756e+01 0 0 -1
175 1 4.7805674130673594e+00 -1.4220284231802482e+00 1.2492615821094377e+01 -5 0 1
270 2 -1.8293615862500987e+00 8.6108561372888470e+00 1.6193494155077477e+01 2 0 -1
463 1 2.3038873344252164e+00 6.9841465549047701e+00 6.7202214915794958e+00 2 0 0
449 2 6.7246557815049126e+00 5.6511672992539559e+00 1.0556551722184349e+01 -1 0 1
524 2 2.4714161105690300e+00 3.0326150246524426e+00 1.2978986163991975e+01 -2 0 -4
585 2 -2.7391919039422405e+00 8.0104433218919731e+00 1.3840127534115776e+01 -4 0 -4
523 1 2.2977195088608706e+00 3.6593581174843415e+00 1.2212775872356719e+01 -2 0 -4
658 1 6.3638676008407229e+00 1.8780958519786881e+00 1.4724304480390570e+01 -1 0 -2
206 2 4.6866166945799925e+00 4.1284836465857344e-02 1.1525699219036971e+01 3 0 0
96 2 -2.0674863805341870e+00 3.6631537234874356e+00 7.4465941886917379e+00 -1 0 -1
441 2 6.0932795916717275e-01 4.5883101249454903e+00 1.3621033643396835e+01 -2 0 -1
151 1 8.2619205817166037e+00 6.9752242644603690e-01 3.9254232900897033e+00 3 0 0
781 1 2.9337559902508050e+00 3.6525263109412558e+00 1.3427245176251255e+00 -2 0 -2
880 1 1.1623912620541139e+01 1.0792816042381546e+00 8.2263214692047804e+00 -3 0 2
626 2 1.6281772362908384e+00 1.7427413350422665e+00 1.5094023723205769e+01 0 0 -1
635 2 1.9940710180430723e+00 1.0130735378735075e+01 1.0135968682640597e+01 1 0 -2
703 1 -2.3174997742709871e+00 4.9254436303199345e+00 1.4185256058980661e+01 -2 0 -1
382 1 1.6785195178633458e+01 3.8262538386370633e+00 1.4463970516306035e+00 -2 0 1
21 2 1.0758168710218888e+01 7.1208283307913316e+00 2.0260104813498567e+00 -3 0 -3
977 2 5.1196907898545057e+00 -8.7628666268168898e-01 1.7927449284357149e+01 -3 0 -1
54 2 1.0661170324605335e+01 4.1216287912050653e-01 1.8367406177929975e+00 2 0 0
540 2 2.3390211955657727e+00 1.1202916435316523e-01 1.3178311022012472e+00 -4 0 -3
689 2 2.2421359439551116e+00 2.9642487546530765e+00 5.2098251776385842e+00 -2 0 0
85 1 -3.6857053349503599e-01 -7.8629070071359952e-01 1.1553127185881431e+00 2 0 -2
392 2 2.3934635988861661e+00 7.0001732386725930e+00 1.2020045889804489e+01 -1 0 -1
652 1 6.7669659056909026e-02 5.0311050024941446e+00 3.5483553371630068e+00 -1 0 0
52 1 1.0432307613875727e+01 1.2283084458869173e+00 2.3390654454796840e+00 2 0 0
356 2 -2.3584171583539666e+00 5.2559002033580828e+00 1.7462686953192232e+01 -4 0 -3
477 2 6.1672638829699435e+00 3.5622175210459641e+00 1.1925777516283508e+01 -1 0 2
500 2 -7.9717491902478255e-01 2.3243735001768222e+00 1.2532899987805452e+01 1 0 0
367 1 1.4712738573982739e+01 8.9378688767050427e+00 1.0816528129326672e+00 -2 0 0
806 2 1.1791562598421322e+01 6.1497648012911998e+00 7.0903229994004437e+00 -4 0 1
926 2 -3.3235034388243641e+00 -1.1184350293338099e+00 1.2361798499615185e+01 2 0 2
810 2 8.4136844332914755e+00 5.7846641392840725e+00 7.1077120290978453e+00 -4 0 -1
930 2 1.5712053851764630e+01 2.0560633657470122e+00 6.3232943365782219e+00 0 0 0
702 2 4.5565261286997680e+00 -4.4456276485193547e-01 1.5528231078997816e+01 -3 0 -3
501 2 -9.3404091712145210e-01 7.9216181414900388e-01 1.2502584020722713e+01 1 0 0
625 1 2.5206719027648337e+00 2.0620672794023074e+00 1.4905675924272671e+01 0 0 -1
746 2 -4.9092926844447815e+00 9.5765707033404066e+00 1.4472381313542156e+01 -2 0 0
101 2 4.3343065995669363e+00 5.6887670132248997e+00 1.1413040068200530e+01 -1 0 -1
384 2 -6.7801881900184180e-01 4.0614005373673159e+00 2.2588307999923769e+00 -1 0 1
245 2 1.1461581695726679e+01 7.6505568279044649e+00 1.3843372156832798e+01 -4 0 -4
622 1 -2.8798346766581786e+00 2.2841749339267148e+00 1.8182698516534067e+01 -2 0 -2
624 2 -1.9955488782209159e+00 1.8651775946160032e+00 1.8073249862793617e+01 -2 0 -2
179 2 1.3092783404146541e+01 4.3611568177002473e+00 3.5256643803802440e-01 -3 0 0
539 2 3.3582911398478696e+00 -1.0472068827209275e+00 1.5497243160251122e+00 -4 0 -3
547 1 7.2798094718690152e+00 1.0244296751940020e+01 1.5411049318478451e+01 -3 0 -4
747 2 1.2418390441330509e+01 1.0244668702458668e+01 1.3269000299984416e+01 -3 0 0
268 1 -2.4811679801032591e+00 9.0941600550401596e+00 1.5640807238768923e+01 2 0 -2
600 2 -5.1378974109846354e-01 7.7823708362143007e-01 9.5060637779676167e+00 -3 0 1
49 1 9.7055662039676136e+00 2.3755022276955922e+00 1.0565363196729029e+01 -1 0 0
183 2 1.2518251251556681e+01 3.4995763626619922e+00 5.2448652220631917e+00 -1 0 0
464 2 3.0529544629533607e+00 7.4794057302096455e+00 6.3902361823833296e+00 2 0 0
393 2 1.7207850034533783e+00 8.2183964705596004e+00 1.1062370024440444e+01 -1 0 -1
277 1 8.1846821933149556e+00 1.0088027139805572e+01 6.5512864212414792e+00 -4 0 -1
788 2 6.9631015872338651e+00 8.9255557959771767e+00 8.4519507048664388e-01 -2 0 0
135 2 -6.4107698269430813e-01 2.9132306504224132e+00 9.9617703061252687e+00 1 0 -1
778 1 6.4653103593105534e+00 6.5117382761361231e+00 3.0424000930567425e+00 1 0 0
698 2 4.0671436466684856e+00 9.8898205842928206e+00 1.7783122144614786e+01 2 0 3
598 1 -1.0473966595943613e+00 -5.2224214674534641e-02 9.5126177126558620e+00 -3 0 1
120 2 4.5959890695602343e+00 3.3495584965854519e+00 3.2729277001111226e+00 -2 0 -2
858 2 -1.3223680733100318e-01 7.8584795432390528e+00 8.3605996112193388e+00 -1 0 -3
640 1 -8.0238004514488370e-01 6.4078713219310632e+00 1.1755610276116332e+01 4 0 -1
753 2 -4.5392807042517394e+00 5.5681138125388117e+00 1.7248010509344990e+01 0 0 2
672 2 -5.0674009861414815e-01 -5.7018451443628537e-01 7.9641001785191499e+00 -3 0 -1
119 2 3.6250729406723154e+00 2.1841367917467549e+00 3.5217512704556069e+00 -2 0 -2
525 2 2.9198648500859523e+00 4.4362238391557280e+00 1.2240230745399920e+01 -2 0 -4
495 2 3.8703651684617340e+00 8.4630574493932755e+00 9.5844982652723409e+00 -3 0 -2
971 2 3.4045414474532483e+00 8.5226795150564474e+00 9.5269569403181509e-01 0 0 1
776 2 1.2438859641015602e+01 7.0516931216046075e-02 8.0487976011409224e-01 -2 0 2
212 2 8.8513755808895525e+00 2.2172108713596144e+00 7.3203818943377152e+00 -5 0 -2
701 2 3.5193875590523200e+00 5.0017356427718562e-01 1.4919753223591034e+01 -3 0 -3
5 2 5.1581088005272377e+00 8.8506985600189267e+00 5.2175631305096335e+00 1 0 0
470 2 1.4886371743903313e+01 1.3905508394899053e+00 3.1903666326458699e+00 -7 0 -2
471 2 1.6202645330891688e+01 8.4939132604534251e-01 2.5746672740659244e+00 -6 0 -2
708 2 9.1010086552010172e-01 8.1754704016588917e+00 1.5816061634547639e+01 -1 0 -1
950 2 -3.8091685423447053e+00 -9.4777251643850180e-01 1.8333642584848199e+01 -1 0 1
46 1 1.0158075378563515e+01 7.0649469594911629e+00 6.9340724837821606e+00 -3 0 0
918 2 4.3433606649931447e+00 -1.3347342186640945e+00 3.7254975710681073e+00 1 0 3
856 1 5.4419731001460869e-01 8.5641169407193747e+00 8.1256723308557746e+00 -1 0 -3
627 2 2.7880446830033758e+00 2.7890209874335206e+00 1.5495398214722414e+01 0 0 -1
111 2 1.4004235264881641e+00 1.2609419255159042e+00 1.7882057988123556e+01 1 0 -4
869 2 1.2922244244875248e+01 6.2130218701429527e+00 1.0537370063296834e+01 1 0 0
16 1 -1.3738886138158080e-01 2.9120991787997426e+00 1.6346439266138407e+01 0 0 1
178 1 5.9170600902351058e+00 4.5196693506222871e+00 1.8646858591833670e+01 -3 0 -1
974 2 1.0132612736807115e+01 8.3823968180318786e-03 1.5995498790964561e+01 -4 0 -2
118 1 4.4938190822594883e+00 2.5701123162157451e+00 3.8174441231891127e+00 -2 0 -2
922 1 3.4730757817041527e+00 9.3471929300015937e+00 1.3092451445536021e+01 -3 0 -3
623 2 -3.4678754048694098e+00 1.7239325907033045e+00 1.7707440669082278e+01 -2 0 -2
1668 2 6.3710505579887657e+00 2.3210614655396355e+00 1.3824729280215852e+01 -1 1 -2
644 2 1.0799709893845780e+01 1.2859860907692826e+00 1.1622068348649917e+01 -4 0 -3
619 1 1.0750519141503933e+01 9.9171907888266659e+00 1.8490841417571428e+01 -4 0 -1
745 1 -4.6621970490959601e+00 1.0187009828272476e+01 1.3763243933060222e+01 -2 0 0
239 2 4.1934269622968152e+00 4.9893976166945961e+00 1.5110332056511064e+01 0 0 0
716 2 9.1860456548216760e+00 2.1861428655813016e+00 3.5748030216128442e-02 1 0 2
717 2 9.6127071182030726e+00 3.7449245527758368e+00 1.9563160421458012e-01 1 0 2
240 2 5.6073328852392228e+00 5.3637611386362876e+00 1.4305795866694542e+01 0 0 0
904 1 9.8948805985173838e+00 7.5727847146766845e+00 6.2271453826819534e-01 -3 0 2
17 2 -1.3557716533422770e-01 3.4521895924012949e+00 1.5559393324121135e+01 0 0 1
779 2 5.4981453853381819e+00 6.3386187669818277e+00 2.8911032555834884e+00 1 0 0
636 2 1.6063157057569462e+00 8.9376486529316548e+00 9.2722942785446119e+00 1 0 -2
645 2 1.1004315296781947e+01 -2.2046415735569669e-01 1.1584569814255641e+01 -4 0 -3
613 1 -6.8179230133333490e-01 8.3637529215034290e-01 1.8536494062792862e+01 -2 0 -1
246 2 1.0997556454209054e+01 6.3995919501867444e+00 1.3020607996969114e+01 -4 0 -4
238 1 4.6793663127132348e+00 5.6245551030695466e+00 1.4559693491178919e+01 0 0 0
522 2 8.2959873522787113e+00 -2.0870198820943320e-01 1.0321839558807753e+01 -5 0 -2
715 1 9.2351149816038909e+00 2.9367354629716065e+00 6.6284220956401652e-01 1 0 2
115 1 -4.4576890743867699e+00 3.3143033766465928e+00 1.3100299047273563e+01 -4 0 -5
426 2 1.2176385600215335e+01 1.7867623151183034e+00 2.9111665053327376e+00 -2 0 1
494 2 4.2578194050432234e+00 7.0449369923626310e+00 9.2136478745646322e+00 -3 0 -2
721 1 -5.8647164991986589e-01 1.0201056599592693e+01 1.8735726731703288e+01 -5 0 -3
250 1 7.6078068761916020e+00 8.5644158961036680e+00 8.7364308929193868e+00 -3 0 2
933 2 -2.6664155438679469e+00 1.3459006425368125e+00 1.5032929782644748e+01 -2 0 -1
857 2 2.7872837896081526e-01 9.0863652742515821e+00 7.3132948118906373e+00 -1 0 -3
868 1 1.2826880638445965e+01 5.4588634773437263e+00 9.9159570568947544e+00 1 0 0
214 1 -1.1483826382025963e-01 9.9873263458516224e+00 6.1343142260902246e+00 0 0 -2
18 2 -7.0319072958755502e-01 2.1338461287519706e+00 1.6200613003794508e+01 0 0 1
829 1 1.9368138481326174e+00 9.5510754158539566e+00 4.0450402098826022e+00 -3 0 0
953 2 -1.6975959835829615e+00 7.2538158079252693e+00 5.1807625445292915e+00 0 0 1
785 2 -5.9459485255841604e-02 2.4336960313864724e+00 9.3514629594416165e-01 -3 0 -2
870 2 1.2882003647344474e+01 5.6640626047854612e+00 8.9693457007027604e+00 1 0 0
211 1 9.5833367127547824e+00 2.7709179011375911e+00 7.6543915991669440e+00 -5 0 -2
387 2 1.8601429420491882e+00 1.1824786093633448e+00 4.0652478588962078e+00 0 0 -2
526 1 4.4570725758553307e+00 -1.2756980519461441e+00 5.3585225037643811e+00 -2 0 0
643 1 1.1289304159647530e+01 5.7977771208465256e-01 1.2030034822766591e+01 -4 0 -3
841 1 -1.4592095905666920e+00 -1.5342785203283444e+00 1.5756094041054867e+01 -5 0 -5
458 2 -8.7286205287339769e-01 -1.4855672027056381e+00 2.8120341430252220e+00 -2 0 -2
320 2 1.0503931807128957e+01 -1.3435189325907326e+00 1.3972586854286710e+01 -4 0 -3
116 2 -4.4965595685814517e+00 2.4159764479352503e+00 1.3451874452145084e+01 -4 0 -5
224 2 -7.9793878270203233e-01 5.3090842485765375e+00 1.8967903789831908e+01 -2 0 -2
845 2 8.0838127297888338e+00 -4.6076165794830848e-01 1.2709195038055938e+01 1 0 1
48 2 1.0511694927885232e+01 7.5420411749596692e+00 7.7178524460902178e+00 -3 0 0
117 2 -3.7131706193306182e+00 3.8542617823218421e+00 1.3455660948068912e+01 -4 0 -5
931 1 -1.7658157260598411e+00 1.0243910788118185e+00 1.5158295109519901e+01 -2 0 -1
429 2 -5.5287106557333239e+00 7.5829819997437191e+00 1.5988317832836204e+01 0 0 -1
385 1 2.2006328461423177e+00 1.1170746190081942e+00 3.1459739594542895e+00 0 0 -2
981 2 1.2528958907053404e+01 9.7528277505296774e+00 9.4506711798422138e+00 -2 0 0
961 1 1.5869553857708869e+00 -8.7058947595211089e-01 1.4052093040206804e+01 -3 0 -1
42 2 2.7615358637124103e+00 6.0757221275192839e+00 8.1709004664179155e+00 -2 0 3
726 2 1.4255099165943900e+01 1.7459334652837519e+00 9.8193859562749566e+00 1 0 1
876 2 1.2131252163500481e+01 7.7586465865932688e+00 1.1873618748974303e+01 -3 0 1
769 1 -1.2631194371605188e+00 6.6972442518232818e+00 9.1906607175168791e+00 1 0 -3
1002 2 1.0206322986914108e+01 3.0541336527383116e+00 5.9913901885197189e+00 -1 0 1
4 1 4.2138910703806811e+00 8.9327165370031523e+00 5.3894244130850941e+00 1 0 0
905 2 3.3529327604096055e+00 8.2546219617733740e+00 1.9042895179741354e+01 -3 0 1
41 2 4.0027560079637290e+00 5.2680057467492762e+00 8.2984913882767213e+00 -2 0 3
334 1 1.0004633677748320e+01 8.5575247147466111e+00 4.5126914650393282e+00 -2 0 -1
812 2 1.1024526241721063e+01 4.8147017257721618e+00 1.1647652759613823e+01 -2 0 -1
932 2 -1.3585263899951432e+00 1.1672433573454595e+00 1.4265527620298464e+01 -2 0 -1
368 2 1.5610169195885069e+01 9.1714740146024720e+00 1.4012690375932044e+00 -2 0 0
213 2 9.1876083486046252e+00 3.6770036916334190e+00 7.6663648061265901e+00 -5 0 -2
274 1 8.5382165481444687e+00 -1.2832455558828775e+00 1.8894940964448825e+01 2 0 -1
216 2 5.9171579522514794e-01 9.7533970643196994e+00 5.4703394110264689e+00 0 0 -2
338 2 3.4003476769185013e+00 5.6339782799363363e+00 3.3988113144267462e+00 -1 0 -1
938 2 1.2840620119033927e+01 6.6453183076681306e+00 2.6408640034733302e+00 1 0 1
969 2 2.3018326535389062e+00 3.1660124187073730e+00 1.0603029698143795e+01 -1 0 1
545 2 1.9172290118965547e+00 -9.3448328380803414e-02 1.2708388162776050e+01 2 0 1
386 2 1.4279018470293707e+00 1.2446694887071543e+00 2.5691623250084912e+00 0 0 -2
937 1 1.3811818988027490e+01 6.5940928856342662e+00 2.6748803516168485e+00 1 0 2
40 1 3.2956759026003795e+00 5.6513328533273270e+00 8.8719972867448167e+00 -2 0 3
786 2 -5.6297651932906501e+00 2.2691990505553177e+00 1.9063439895986747e+01 -3 0 -3
951 2 -3.0917497384624300e+00 -1.2401882900116448e+00 1.6994012140092494e+01 -1 0 1
724 1 1.4402172691741741e+01 9.7504053644294642e-01 9.2504670200328274e+00 1 0 1
784 1 7.3579310883626969e-01 1.9465475546233626e+00 8.1995780001011875e-01 -3 0 -2
967 1 2.3976031837196614e+00 3.1572963891211128e+00 9.5988658687287600e+00 -1 0 1
553 1 9.6306162249263423e+00 3.4092858269027184e+00 1.6267735955781824e+01 -5 0 -2
681 2 6.7085921066558258e+00 3.1665027435412716e+00 1.7726532902097905e+01 -3 0 -3
649 1 7.6983962263998755e+00 1.0904194586281588e+00 6.4447654796330447e+00 -4 0 0
650 2 6.7418327777170290e+00 1.4395386167819217e+00 6.4400807015154653e+00 -4 0 0
51 2 9.2531465689800942e+00 1.9321082597112871e+00 9.8401960554293488e+00 -1 0 0
36 2 1.9574841393328457e-01 1.8153150932988122e+00 5.5735977495987381e+00 -1 0 0
945 2 4.5177219518641252e+00 1.3207736042521168e+00 7.1151820654871480e+00 0 0 3
673 1 1.6060664150251298e+00 8.5232921733101801e+00 9.2806129170496712e-03 0 0 -3
939 2 1.4146331858891687e+01 7.4786986835479325e+00 2.2959539442898298e+00 1 0 1
397 1 1.6032118475417867e+01 5.3864301485036030e+00 5.2254419485301673e+00 2 0 0
127 1 1.4259133333558921e+01 4.1568581776425342e+00 1.7984047094887974e+00 -2 0 -1
128 2 1.3931375548514062e+01 3.4268501486130170e+00 2.3393109693256751e+00 -2 0 -1
1407 2 1.5180282894974997e+01 5.0780063599530916e+00 5.0163153787461834e+00 2 0 0
34 1 -7.0722514162892058e-01 1.4744721008821378e+00 5.6789594193720694e+00 -1 0 0
928 1 1.4919910862089608e+01 2.3492064858499848e+00 6.8185955229316262e+00 0 0 0
991 1 1.3602173254219036e+01 -1.5620236630540369e+00 9.7206374998357550e+00 1 0 1
152 2 9.0090839463275874e+00 1.0193781806543996e+00 3.4076403538958435e+00 3 0 0
439 1 2.8999107383808642e-01 4.9628716919022091e+00 1.4430300166011309e+01 -2 0 -2
350 2 1.4482626690224709e+01 1.1569507855894345e-01 2.5964906892105954e-01 2 0 4
843 2 -1.4875523405581066e+00 -6.5956811943286398e-01 1.5298699779854743e+01 -5 0 -5
176 2 4.4651865174059600e+00 -9.5110393359888157e-01 1.3283728802588451e+01 -5 0 1
783 2 3.3443101051696420e+00 3.2384126821480468e+00 5.8923987386152010e-01 -2 0 -2
148 1 9.5601064491739258e+00 8.4960545387336026e+00 1.5703403279485078e+01 -4 0 -1
994 1 8.3196874622744339e+00 6.8029407701304869e+00 1.0560340655629544e+01 3 0 1
725 2 1.4449754301318503e+01 1.3937209642783270e+00 8.3755655520397916e+00 1 0 1
979 1 1.3290957431259372e+01 9.8395902894515253e+00 1.0052353350193810e+01 -2 0 0
129 2 1.4069326101548386e+01 5.0373615598818002e+00 2.1856020387110990e+00 -2 0 -1
160 1 -8.6819372786543658e-01 1.0238104776762727e+01 1.0941264879426589e+01 1 0 -5
173 2 9.9887984334806852e+00 3.8724583272201123e+00 1.2990033204006576e+01 -1 0 -2
1664 2 3.9615851796059562e+00 8.3263675517063032e+00 1.5979569938313812e+01 -3 1 -1
428 2 1.1164857243036298e+01 8.4545389290836930e+00 1.5683125271820405e+01 -1 0 -1
671 2 -4.7712931187162555e-01 -3.4358878591890973e-01 6.4180867370113059e+00 -3 0 -1
462 2 9.6762968604903783e+00 5.7844392759974506e+00 1.0158804292912139e+01 -4 0 -2
651 2 7.9157166718031755e+00 9.2622585287100279e-01 5.4933715644923948e+00 -5 0 0
996 2 8.2747630954071383e+00 7.2697438908059056e+00 1.1439102744296257e+01 3 0 1
611 2 1.3663716261277751e+01 4.1688156867096966e+00 1.0197573497363850e+01 -1 0 2
589 1 -4.2732619553712947e-01 9.4007549464445770e+00 1.3606103656262519e+01 -4 0 -1
750 2 5.6273035788024703e+00 8.5433720706239065e+00 1.1080149222641316e+01 -3 0 1
749 2 4.9002530417311894e+00 9.2101918431119216e+00 1.2297601860655970e+01 -3 0 1
102 2 4.0779271934775547e+00 5.8343113818246204e+00 1.2844487640469364e+01 -1 0 -1
497 2 5.4935672692175821e+00 3.5250739399393414e+00 8.0130929589192519e+00 0 0 1
498 2 6.0596371326702139e+00 4.8335706081970926e+00 7.3258171528741549e+00 0 0 1
395 2 1.0029947690779290e+01 3.7300338524580248e+00 2.3680660244753504e+00 -3 0 -3
924 2 2.7424804493993831e+00 8.8138600216522320e+00 1.2707721601415685e+01 -3 0 -3
349 1 1.4037971114097211e+01 9.9071454802561298e-01 5.8815621852353372e-01 2 0 4
679 1 7.3046327740378443e+00 2.4828123821087109e+00 1.7431769733509054e+01 -3 0 -3
398 2 -1.7426740723981462e+00 5.0724443011403171e+00 6.1346282582662166e+00 3 0 0
985 1 6.0508422278287162e+00 1.0047017494202517e+01 2.7580860633490700e+00 -2 0 -2
516 2 -2.2523354796873285e+00 8.0660394637368587e+00 8.8352801779294960e+00 0 0 -1
321 2 1.1339142692434706e+01 -2.1180562296837957e-02 1.3795724021049761e+01 -4 0 -3
943 1 4.9142833902831766e+00 1.2429229702804179e+00 6.2597047360391631e+00 0 0 3
84 2 1.3736794455737735e+01 7.4535845259290596e+00 4.4308690500736301e+00 -1 0 -3
714 2 -1.3098780304349336e+00 -6.7582021564074091e-01 1.1059723569264539e+01 0 0 3
220 1 -6.5937168217731390e-01 8.1002507638382077e+00 1.7041264969722199e+01 -2 0 -3
172 1 9.0996329759809331e+00 3.5670470987455793e+00 1.3317005433345317e+01 -1 0 -2
298 1 -5.3536520241724084e+00 1.1769663551491374e+00 1.6894668850559022e+01 -2 0 -2
680 2 6.9702213743010111e+00 2.2578715588916465e+00 1.6522543338259354e+01 -3 0 -3
831 2 2.8592826551099755e+00 9.5767950376003306e+00 4.2778317353540389e+00 -3 0 0
538 1 2.7694536623867441e+00 -6.5761815482103425e-01 8.6540335163890791e-01 -4 0 -3
944 2 4.5810883800305291e+00 1.9579359747340059e+00 5.7497215031828928e+00 0 0 3
100 1 3.6156283803009286e+00 5.8471778531270058e+00 1.1997118385556064e+01 -1 0 -1
1667 2 5.5971963432768392e+00 1.2864805449265395e+00 1.4878770174308748e+01 -1 1 -2
87 2 2.0231712131163510e-01 -1.4614264785413162e+00 7.7512906062669262e-01 2 0 -2
174 2 8.6642814261190999e+00 3.2690241150602715e+00 1.2523478676018447e+01 -1 0 -2
388 1 1.3915354909159662e+01 -8.8377492989616602e-01 4.9736389424658478e+00 -1 0 0
465 2 1.7211494721262577e+00 7.5596371462041478e+00 7.2513920374079621e+00 2 0 0
83 2 1.3104105490677535e+01 8.5791530191603584e+00 5.3458830446774925e+00 -1 0 -3
460 1 1.0202066479187989e+01 4.9943371607123153e+00 9.9336003690510211e+00 -4 0 -2
607 1 6.0455931235841271e+00 7.2336940994157395e-01 2.3386655570294468e+00 -3 0 0
314 2 -3.4380586419616614e+00 1.0326069302064813e+01 1.6742925739511314e+01 -3 0 -3
269 2 -1.9486509453657015e+00 9.3175035069108283e+00 1.4864764527222556e+01 2 0 -1
949 1 -3.9282925269211417e+00 -1.1183732891861298e+00 1.7370341753674015e+01 -1 0 1
595 1 2.5021112311819449e+00 4.8749913130778006e+00 4.6418333503154887e+00 3 0 -2
528 2 4.7028614131272182e+00 -4.1819065168877412e-01 5.7621574611226523e+00 -2 0 -1
109 1 2.3622576808937570e+00 9.8394047803762108e-01 1.8024433171106033e+01 1 0 -4
615 2 6.1821408182441910e+00 1.2872161824332791e+00 2.9323899860145825e-01 -2 0 0
251 2 7.9011288139480937e+00 9.0862405290486450e+00 7.9645350398221266e+00 -3 0 1
461 2 1.1043414282862326e+01 5.2941256030274264e+00 9.5343200461088422e+00 -4 0 -2
599 2 -1.9599724490068793e+00 2.7838618341337629e-01 9.3080900261894541e+00 -3 0 1
408 2 2.7010857141106346e+00 1.9218915382207249e+00 8.6249750545422845e+00 -2 0 -2
20 2 1.0750171347540924e+01 5.7755108324952040e+00 2.9030276667529189e+00 -3 0 -3
182 2 1.3110101139877123e+01 4.6184501363434238e+00 6.1192201488437146e+00 -1 0 0
35 2 -1.0986099129891107e+00 1.3406920762675596e+00 4.8202903425994093e+00 -1 0 0
514 1 -2.3721850154282915e+00 9.0524037707460803e+00 8.8687594188254000e+00 0 0 -1
685 1 2.4791372939521197e+00 -1.2421751725548988e+00 9.4929511902258881e+00 -3 0 1
475 1 6.1456315115909526e+00 2.6320601618252759e+00 1.2313955061719584e+01 -1 0 2
68 2 7.4508761917985957e+00 5.4994008954626317e+00 1.5603978948870694e+01 -4 0 -3
353 2 1.0732736494733947e+01 9.8393600305875744e+00 9.9685400054729598e+00 -1 0 1
133 1 -2.1585520548590598e-01 2.4817653383659071e+00 9.1677421946709572e+00 1 0 -1
610 1 1.4067950612679381e+01 3.3243075781692255e+00 1.0640660872583981e+01 -1 0 2
675 2 -4.9157169892943164e+00 7.6455507572010450e+00 1.8656883444503734e+01 0 0 -4
82 1 1.3513250636092586e+01 7.6408616980878907e+00 5.3857717049790699e+00 -1 0 -2
300 2 -4.9004880360784107e+00 3.2614717457486897e-01 1.7116584221390667e+01 -2 0 -2
290 2 6.8630051174458435e+00 9.2881483454807281e+00 3.7980924078687943e+00 0 0 3
782 2 2.2507809779067722e+00 3.0354016356274034e+00 1.5584119872682549e+00 -2 0 -2
690 2 2.2101588770740830e+00 1.9390300684647177e+00 6.3604889502064745e+00 -2 0 0
561 2 8.1241708444546958e+00 -4.3238238297136822e-01 6.7202570731187743e+00 -2 0 1
728 2 6.9164652553815413e+00 8.4737560350918901e+00 1.2747961431217139e+01 0 0 1
113 2 9.1196215253614259e+00 9.6325677641815899e-01 1.3441365826422238e+01 -2 0 -1
215 2 -7.8261324321910819e-01 9.2361481068535483e+00 5.8902224734073840e+00 0 0 -2
354 2 1.0460706071979484e+01 1.0244022104992016e+01 8.4864379649899728e+00 -1 0 0
222 2 -7.1665708325602218e-01 8.9175858649172230e+00 1.7621326394116586e+01 -2 0 -3
699 2 2.5691965837496156e+00 9.9081806250841655e+00 1.7418544585792887e+01 2 0 3
67 1 7.4870555555685696e+00 5.4904574303183926e+00 1.6615586769236984e+01 -4 0 -3
727 1 7.6184067842275995e+00 7.8697631020580552e+00 1.3037884236298710e+01 0 0 1
114 2 7.9132166590378255e+00 1.0638590923849498e+00 1.4443327444656674e+01 -2 0 -1
425 2 1.3275513215132898e+01 1.5157250777341611e+00 1.8509755604471012e+00 -2 0 1
544 1 1.9974720198657430e+00 4.5226185962196919e-01 1.1819474092495136e+01 2 0 1
875 2 1.3125932253539897e+01 8.4405346393475611e+00 1.0986735480900400e+01 -3 0 1
1001 2 1.0865539481117205e+01 1.8104488899916902e+00 5.2795914774960337e+00 -1 0 1
496 1 5.2858314201072201e+00 4.3788544169557984e+00 7.6380032763926584e+00 0 0 1
655 1 4.7216451690383003e+00 8.1963848001343163e+00 1.5399538029471076e+01 -3 0 -1
337 1 3.8897849944101739e+00 5.8986647172374536e+00 2.5947671006016124e+00 -1 0 -1
777 2 1.2120248237388287e+01 -1.0738510733328721e+00 1.6917809337785008e+00 -2 0 2
221 2 -9.2046205894453159e-01 7.2798719090116641e+00 1.7570158931406535e+01 -2 0 -3
844 1 7.8203655595023607e+00 -1.1010104245031358e+00 1.1981884774377049e+01 1 0 1
583 1 -2.8392069586009181e+00 7.2130474362018653e+00 1.3211457361505051e+01 -4 0 -4
584 2 -3.6515478838039810e+00 7.4809854037890453e+00 1.2690056850702145e+01 -4 0 -4
641 2 -1.4008636812062476e+00 6.9413481978530704e+00 1.2326144603697767e+01 4 0 -1
110 2 2.3247770598804536e+00 1.1325265918880567e-01 1.8493099910320122e+01 1 0 -4
389 2 1.3162986154763777e+01 -3.1318960898643788e-01 5.2211517798161138e+00 -1 0 0
47 2 1.0068250289120479e+01 7.7757070539787065e+00 6.2307787587046182e+00 -3 0 0
207 2 3.4234573290627948e+00 9.9964717398545933e-01 1.1467439374536260e+01 3 0 0
808 1 7.9933159579425634e+00 4.8967520027777915e+00 7.0987635841979824e+00 -4 0 -1
954 2 1.5196476835924043e+01 8.1112421350252060e+00 5.7151499214523493e+00 -1 0 1
577 1 2.9518448193669524e+00 4.4052532244605853e+00 1.6038106504048898e+01 0 0 0
19 1 1.1147662673698596e+01 6.6701963265785675e+00 2.8174214262903781e+00 -3 0 -3
1000 1 1.0858904277182305e+01 2.8576720323734790e+00 5.2813457377204323e+00 -1 0 1
294 2 -1.1284839555050739e+00 4.4541416752965324e+00 1.1524031697575932e+01 1 0 -3
390 2 1.4614272245466532e+01 -3.1780786035597086e-01 4.6558874119095233e+00 -1 0 0
297 2 -3.5488931822063252e-02 8.3783371647659717e+00 2.5524458605854616e+00 2 0 3
521 2 8.4455774329621462e+00 -1.6476926393320612e-01 8.7358880131265355e+00 -5 0 -2
813 2 1.2036231223307031e+01 4.3066497660010574e+00 1.2694406696282085e+01 -2 0 -1
912 2 1.1145534854154707e+01 -5.5606545586729506e-01 5.8202196258423218e+00 -2 0 1
549 2 6.5459767382126675e+00 9.6181725030492569e+00 1.5265316801078086e+01 -3 0 -4
575 2 1.0258958604785491e+01 9.0819095306794306e+00 1.2675623340130789e+01 0 0 0
771 2 -1.4210909098343132e+00 5.7639645490948421e+00 8.7526192740154745e+00 1 0 -3
590 2 3.7975031557271777e-01 8.8999212206304268e+00 1.3982930497440568e+01 -4 0 -1
809 2 7.8736402433263804e+00 4.6325376044797419e+00 6.1351269184870514e+00 -4 0 -1
866 2 7.3738084799020784e+00 3.4478399703571601e+00 2.8642927431131116e-02 -3 0 0
94 1 -1.3695546005575441e+00 4.3955419357549612e+00 7.6073303526986109e+00 -1 0 -1
225 2 5.4173065243714822e+00 6.7597646583112265e+00 3.2193480576742184e-01 -2 0 -1
770 2 -1.0485202523076391e+00 6.6050560999699144e+00 1.0134922685826835e+01 1 0 -3
123 2 7.4884216282442404e+00 6.3540718124331086e+00 1.3548335148228873e+01 -2 0 -1
440 2 -6.1776016492185448e-01 5.1462042435938642e+00 1.4224355030416577e+01 -2 0 -2
383 2 1.5741397380078276e+01 4.0889542117568940e+00 1.6344467517037531e+00 -2 0 1
162 2 -6.0267669435343496e-01 9.7629874429995063e+00 1.1722011329327081e+01 1 0 -5
499 1 -4.4977905217503444e-01 1.5072933434927531e+00 1.2919406430276734e+01 1 0 1
910 1 1.1564462388627664e+01 3.0165314916483243e-01 5.6023128164824723e+00 -2 0 1
546 2 1.1929102390420603e+00 9.6903061357195286e-01 1.1817824955753386e+01 2 0 1
503 2 5.4405137090893101e+00 -2.8828000638603402e-01 8.7843215239592798e+00 0 0 0
729 2 8.4272023805097174e+00 8.2823910954015076e+00 1.3383035030244971e+01 0 0 1
612 2 1.3675656839974270e+01 3.2376268306809992e+00 1.1591493362046613e+01 -1 0 1
674 2 1.1994519236533778e+00 8.1381775585966754e+00 8.4799643082793963e-01 0 0 -3
121 1 7.2548501439627984e+00 5.4694775568423912e+00 1.3969669037273571e+01 -2 0 -1
911 2 1.1630062515536252e+01 6.9819983242517303e-01 6.5253413205608197e+00 -2 0 1
424 1 1.3108983108554307e+01 1.8269125278327376e+00 2.7642568720627652e+00 -2 0 1
811 1 1.1259706593529931e+01 4.8764494589631608e+00 1.2593131229924905e+01 -2 0 -1