LAMMPS data file via write_data, version 8 Apr 2021, timestep = 1652000

3072 atoms
2 atom types

0.18554659216083721 29.95464740783235 xlo xhi
0.05453553251915622 28.28593046747742 ylo yhi
0.12304127671223847 27.288403723283775 zlo zhi
10.029243347034342 10.217809744985068 7.127207444513471 xy xz yz

Masses

1 16
2 2

Atoms # atomic

1 1 7.622712115577263 5.200278006112773 4.206312042535658 0 0 0
2 2 6.816457726245498 4.696895473679461 3.993426523146316 0 0 0
3 2 7.468576380471568 6.138521223104982 4.495533759586029 0 0 0
4 1 10.160213520387705 6.7798732637777155 11.19452946325222 0 0 0
5 2 10.70211179538115 6.57239852550877 12.076502868241969 0 0 0
6 2 9.816708349045074 7.691766319654683 11.307428746280252 0 0 0
7 1 9.890756828430025 12.39492447544139 3.9350912798606745 0 0 0
8 2 10.207974523340079 11.935402069659752 4.728801488413764 0 0 0
9 2 9.810459489002488 13.351951422793833 4.26580972117162 0 0 0
10 1 12.480142501390251 13.899141444449155 10.854727739595141 0 0 0
11 2 13.18239138276892 14.137205583813294 10.194019981821198 0 0 0
12 2 11.782337971510488 13.439799291812882 10.283631076126321 0 0 0
13 1 14.928564148556664 5.186376790981011 3.885162728406731 0 0 0
14 2 15.424289163560811 4.765430695454224 4.653500440767701 0 0 0
15 2 14.52650204778152 5.964013761853916 4.326575235735527 0 0 0
16 1 17.57092502458897 7.508551913834217 11.103715487682251 0 0 0
17 2 17.92627076152782 6.899197257821784 11.813945590078449 0 0 0
18 2 18.300577082971273 7.506337370072792 10.47678873389231 0 0 0
19 1 17.09574822507776 12.230021322396007 4.277587285749442 0 0 0
20 2 17.650407706672826 12.64590325581847 3.621036640241062 0 0 0
21 2 17.675353538606245 11.671571248140053 4.87831713950878 0 0 0
22 1 19.906155438680845 13.887525505847897 11.255931043361207 0 0 0
23 2 20.655260254122123 14.01222507475564 10.628679185516773 0 0 0
24 2 19.662056813268595 14.833658107685356 11.420131706672345 0 0 0
25 1 11.610733054524262 8.257014982663641 6.337654050477783 0 0 0
26 2 10.79799187100713 8.492590017687077 5.832748663864005 0 0 0
27 2 11.397185783873601 7.503686857539342 6.89226213404936 0 0 0
426 2 36.21272798202895 9.294752457431326 13.378955010356107 0 0 0
29 2 14.566560696694143 9.381128179589636 12.443710761016412 0 0 0
81 2 4.481983326929775 7.456383904656296 0.9951034738649781 0 0 0
182 2 17.108492065366132 3.5907673059934213 5.494046007406908 0 0 0
341 2 7.315805207627316 8.938843149839052 11.46555717389854 0 0 0
680 2 22.690534998428575 14.114737497499808 1.113151442417203 0 0 0
606 2 23.888815782148875 2.4204095581677074 9.10605000891692 0 0 0
32 2 14.309460744676558 14.837115170133341 5.715323590285488 0 0 0
38 2 18.39823527216996 8.865510847484751 5.961314892345409 0 0 0
87 2 8.533705554117274 1.3776336793900943 1.6694726382080882 0 0 0
703 1 20.733972319731073 11.617675556383853 0.7313276674166126 0 0 0
150 2 10.464276845901686 3.4369489883218067 12.240702360971289 0 0 0
275 2 14.326022892051474 16.117916875549298 9.407028706574035 0 0 0
34 1 16.499861221976797 16.761274730389378 13.177886385895999 0 0 0
172 1 11.788471461084235 6.1649436101513855 13.156073765192978 0 0 0
49 1 5.314681077203274 3.625032287082672 2.9604360394101974 0 0 0
50 2 5.589584081456972 2.7063757701591915 2.843170197825027 0 0 0
51 2 4.554976647689472 3.5316783138826695 3.5668612881001622 0 0 0
52 1 8.218771269617166 5.5029435459844045 9.555875267082476 0 0 0
53 2 7.96186915660522 6.016962244728884 8.754063175299532 0 0 0
54 2 8.955490485572755 5.954250291183344 9.982757302442867 0 0 0
55 1 8.01444627766416 10.717667310189613 2.976091662017838 0 0 0
56 2 8.401552509724345 9.857124930357493 2.6378130137991604 0 0 0
57 2 8.629446791556902 11.41531314542653 3.2668766724589724 0 0 0
58 1 10.513664622161809 12.693392254478931 9.67530123799764 0 0 0
59 2 10.09495169735481 13.035390041625435 8.877120306670147 0 0 0
60 2 10.81183712233183 11.766155589767749 9.508960190732605 0 0 0
61 1 12.880834466337609 3.7073434978057676 2.6771662366798017 0 0 0
62 2 13.430169679091097 4.309417078840835 3.2176916869930463 0 0 0
63 2 12.393523879642235 4.198578298509528 1.959495378271239 0 0 0
64 1 15.133443064706485 5.563169111647058 9.848438716409712 0 0 0
65 2 15.884111296330603 6.020729272955733 10.266245937821811 0 0 0
66 2 15.364098129672808 4.669870533807276 9.65903581920363 0 0 0
67 1 15.09950162401431 10.861038258857919 2.98351928764003 0 0 0
68 2 15.908042590154722 11.225438088081015 3.4296720663665634 0 0 0
69 2 15.410504121437262 10.043088135307954 2.4889970486668496 0 0 0
70 1 17.656334599230906 12.440989919527558 9.75189260486805 0 0 0
71 2 17.295187066005987 12.948858442084017 8.992665221318578 0 0 0
72 2 18.2570760784355 13.065442310507205 10.18373716885314 0 0 0
121 1 3.150779737498232 2.9610021160203064 4.4360806294390915 0 0 0
288 2 21.746884748673992 15.413988166565426 9.06078717781272 0 0 0
229 1 13.240823956171411 1.4302883770461428 1.6150010342379189 0 0 0
218 2 4.935434667290942 0.6544399740158185 1.9667769797464556 0 0 0
84 2 6.987065654238558 9.104939779898276 8.150880622671053 0 0 0
338 2 4.648903388809416 5.660710128563726 4.88771603756628 0 0 0
370 1 12.303835331103661 16.52917473017177 11.92292877468237 0 0 0
90 2 11.668484093238984 3.391384557934758 6.73672553538273 0 0 0
618 2 29.85200982934652 2.4525366850476216 8.800275315830914 0 0 0
94 1 13.752895925603887 9.790594638947566 7.484957851297263 0 0 0
95 2 14.44364348615412 9.118706694687681 7.599479112698463 0 0 0
96 2 12.93692572838695 9.23209226566651 7.353764929112698 0 0 0
97 1 5.574807230013433 4.24455191072197 5.9978501413865155 0 0 0
98 2 5.928964199313761 4.951040322841867 6.599481889242516 0 0 0
100 1 7.928244564506822 5.922136809440666 12.788019336320462 0 0 0
101 2 7.686017236699713 6.5459361652442265 12.068102688559632 0 0 0
102 2 8.51843923713292 5.29181421459099 12.311168297938119 0 0 0
103 1 8.126893426433778 11.298147670584523 6.282898045795021 0 0 0
104 2 7.589695783838073 11.718085756701514 5.599658794520799 0 0 0
105 2 7.5116411506503 10.688722226522728 6.710266102058586 0 0 0
106 1 10.235550955795157 13.295082868366936 12.707860477599121 0 0 0
119 2 16.97650899215229 12.87962073160418 13.686905509555286 0 0 0
108 2 11.017177548610714 12.699731016459815 12.466463051317248 0 0 0
109 1 12.892624549856261 4.36537125759695 6.1055917473183525 0 0 0
110 2 13.558528008704867 3.762031083884874 5.803959426603378 0 0 0
111 2 12.766596785384294 4.97943374838922 5.390722400605312 0 0 0
318 2 5.952312886106454 6.682046063271914 8.227077317420942 0 0 0
557 2 26.79589261815314 6.744355759491912 13.506309886097466 0 0 0
115 1 15.065104382216038 11.386279088422183 5.847167048908325 0 0 0
116 2 14.508369270463543 10.716283211009024 6.250476384829618 0 0 0
117 2 15.317684369224668 11.765751177827761 6.717281122269764 0 0 0
118 1 17.618428057417983 13.45527265355655 13.267430412449594 0 0 0
120 2 17.239044433502873 13.770224437423384 12.43040698159107 0 0 0
309 2 16.23689960899368 14.359827996994897 2.0199236749175657 0 0 0
124 1 5.807800037629346 4.610100911661112 10.83174433003214 0 0 0
125 2 6.347258267103015 5.20328205190825 10.290386806474979 0 0 0
208 1 18.396864062256157 4.590176802065555 10.040119055763626 0 0 0
627 2 23.263138680020653 5.310665006740854 0.7680305646066962 0 0 0
129 2 6.652397236069891 10.36108751010638 3.865696546535156 0 0 0
132 2 9.18465929164989 12.332022640025382 10.612135277179602 0 0 0
133 1 10.693923630863274 2.541797226144937 4.340634079508611 0 0 0
114 2 14.81356724699384 5.5796091777056915 13.19720285790296 0 0 0
135 2 11.389536267779775 3.0176994478394588 3.8421942238019438 0 0 0
136 1 13.206437813894572 4.488396383767074 11.29413448927886 0 0 0
137 2 13.930687706416567 4.9216696961813575 10.912773904893026 0 0 0
138 2 12.711127001113162 5.053658973373623 11.820445393052532 0 0 0
139 1 12.787820413160212 9.648788397380383 4.18432146061216 0 0 0
140 2 13.566243676071085 10.135131654523097 3.8263393791534948 0 0 0
141 2 13.013526190050287 8.850016586306879 4.6338820678221495 0 0 0
142 1 15.476891353981548 11.628634108737197 11.034870857182685 0 0 0
143 2 16.345673856631787 12.031491190959185 10.671207301876501 0 0 0
144 2 15.919390989039847 10.941572191489197 11.553341835219173 0 0 0
345 2 6.079512546297557 12.958695848325748 4.040162296636947 0 0 0
147 2 6.203815657998273 2.798339028674351 5.119553868477273 0 0 0
379 1 17.003333770387485 14.729278483195952 5.449006256549386 0 0 0
149 2 9.891288246301265 3.913650583779734 10.828323115776536 0 0 0
282 2 20.515801854842096 7.91764438662173 10.26876297623582 0 0 0
151 1 9.649211442880784 9.1858245048639 4.770527268590572 0 0 0
152 2 9.465832722844647 10.056097595094508 5.177303688338996 0 0 0
153 2 9.969221877400914 9.358393300971708 3.8517500861626224 0 0 0
154 1 12.091546593680064 11.192544047928838 12.148122560210785 0 0 0
155 2 11.497121560918895 10.42755663066227 12.242942211369114 0 0 0
156 2 12.379876553110256 11.228468318273858 11.18713107855386 0 0 0
157 1 14.310224702695775 2.41015302603421 4.9391123612510075 0 0 0
1566 2 8.450468318316073 5.770776289827308 0.21495611323730326 0 0 1
159 2 14.650184648801796 2.5085355254516704 3.9836106978262764 0 0 0
160 1 17.036766207120504 4.049372706136604 12.517120990968067 0 0 0
161 2 16.565204697321906 4.9229885643979685 12.613859301915113 0 0 0
163 1 16.716217578705898 9.20878248376315 5.137686072054812 0 0 0
164 2 16.2156997995877 10.006909988148697 5.4153617579162105 0 0 0
165 2 17.066853296801003 9.443827550359755 4.2454478803645594 0 0 0
166 1 19.14990178020149 11.280021230769853 12.433321455671033 0 0 0
167 2 18.868398436183938 12.170071788330302 12.73484484882421 0 0 0
168 2 19.555300420936526 11.428439133645654 11.588919946417265 0 0 0
169 1 8.973368148174947 4.227288168350222 6.270743911496104 0 0 0
170 2 9.601226173432282 3.988025250037871 5.585717047004311 0 0 0
171 2 8.239074325108039 4.548550961163495 5.683374199620398 0 0 0
287 2 22.845967294745698 14.962743852847078 10.014837810859747 0 0 0
127 1 5.889987088529847 10.060280972360783 4.433785721149074 0 0 0
175 1 11.469279947813451 11.328609563812611 5.881261819396459 0 0 0
176 2 12.059398864652227 10.769676319853957 5.313433352158669 0 0 0
177 2 12.062892950189594 12.032359408374072 6.212084434646833 0 0 0
178 1 13.905503138906685 13.441045122274266 12.98842979982859 0 0 0
179 2 13.31868994655131 13.685454199883518 12.193299334974087 0 0 0
180 2 14.586585482257831 12.854367309863495 12.610758291069828 0 0 0
181 1 16.464529645826655 4.149946069862529 5.944799760554711 0 0 0
277 1 17.138742171173057 6.0722274948810675 2.7372530135134654 0 0 0
183 2 17.04677115274192 4.766625358930125 6.404396172400583 0 0 0
184 1 18.836712126653893 6.073284619283932 13.213177794267764 0 0 0
187 1 18.719265618536845 11.46685861369317 6.343380426165293 0 0 0
188 2 18.42561649826762 10.884038881457203 7.0705103217238126 0 0 0
189 2 19.230183232121515 12.191811969929784 6.7402526950365145 0 0 0
241 1 7.220822518692332 4.8045444306351275 1.1425161529107055 0 0 0
192 2 21.124229091834092 13.683235459395998 12.522074781275043 0 0 0
193 1 8.359566597145628 2.6137889106082866 2.705803699828068 0 0 0
194 2 7.706696758624212 2.495374198964999 3.429130605561339 0 0 0
195 2 9.24501013441885 2.6535035171045664 3.1799654314010954 0 0 0
196 1 11.277993900427632 4.04835081517561 9.413962885910209 0 0 0
197 2 11.328227102960142 3.312986351060065 8.826711292001244 0 0 0
198 2 12.075136735994052 4.026387761287959 10.04378111414744 0 0 0
199 1 10.712418241312346 9.759141159248108 2.2705161338261375 0 0 0
200 2 10.64263511884066 8.999773011457028 1.6868683937643443 0 0 0
201 2 11.59942625570342 9.742734646324152 2.7274195875281193 0 0 0
202 1 13.367822659990718 11.496765982172102 9.473142263942053 0 0 0
203 2 14.172121776775738 11.529607274153287 10.090086612902267 0 0 0
204 2 13.266308025169511 10.558895410604624 9.09443264039952 0 0 0
205 1 15.860748760061798 2.5590165379128593 2.731940995399507 0 0 0
465 2 18.087214866798462 7.18305657719237 0.5600648170415867 0 0 0
209 2 18.00414962827766 4.347356485189731 10.880032332900191 0 0 0
755 2 27.89400066164763 16.88379752883063 12.212535442154003 0 0 0
213 2 18.13273109990381 10.53496061797681 2.4472080502269993 0 0 0
214 1 20.708802763878335 11.37326310925691 10.237589990723649 0 0 0
48 2 23.632231807705736 16.38029832582325 13.653688999967198 0 0 0
286 1 22.170518086838236 14.609438565997246 9.427169745475073 0 0 0
217 1 5.826299581737909 1.115608383199789 2.0202296235988 0 0 0
30 2 13.564515297371589 10.491087891819138 13.072527549874636 0 0 0
319 1 6.495403975360242 11.681883824159582 0.9117265363743873 0 0 0
1611 2 6.720628486054487 4.9653656710460385 13.603145116368179 0 0 0
221 2 8.20247325571624 3.835813311295605 9.114986641958525 0 0 0
222 2 8.5154380868925 3.2459070209744905 7.786412446236174 0 0 0
223 1 8.235631669318913 8.182723653956623 1.9582461269221583 0 0 0
224 2 8.888167961620912 7.491278468752182 2.196627361765207 0 0 0
225 2 8.293964751383404 8.24737321247457 1.0111896293158866 0 0 0
226 1 10.728576460176411 10.281694654988538 8.549482369363893 0 0 0
227 2 11.226570497566263 9.48998139952074 8.874001686270816 0 0 0
228 2 10.8797904030698 10.471932175881369 7.587523082815305 0 0 0
231 2 13.112293522801043 2.1959219541190125 2.238547267728382 0 0 0
128 2 5.07479968363587 10.032924728299525 3.8847404072478073 0 0 0
234 2 15.913860285832513 3.332811609988628 7.693879598984957 0 0 0
235 1 15.529306037456676 8.298375910487366 1.9073042485419445 0 0 0
542 2 29.883211863979028 1.8964274556522385 5.489352419558226 0 0 0
237 2 16.278041809043305 7.6614083218748705 2.0350212142001554 0 0 0
238 1 17.93345138664702 9.698534401720863 8.641873217301958 0 0 0
239 2 18.677654379886985 9.189573870639496 8.919510057758709 0 0 0
240 2 17.672465612529457 10.393005184766732 9.297824614121062 0 0 0
242 2 7.60093496941555 4.193836422060831 1.8641380569507544 0 0 0
243 2 6.450874704321217 5.276360562251067 1.4944960408278798 0 0 0
244 1 10.359698953950424 6.078278540924905 7.529618190759036 0 0 0
245 2 10.708464806222684 5.477908544742754 8.185270261238418 0 0 0
246 2 9.878323133339993 5.4098912090793085 6.986856498029893 0 0 0
247 1 9.780639460990901 11.811075660269786 0.4907910094589283 0 0 0
248 2 9.305738474414767 12.369018479876361 1.1584132341603934 0 0 0
249 2 10.262937206503612 11.238135687300755 1.069177875709443 0 0 0
250 1 12.571164135355417 13.321296664554422 7.380499311789349 0 0 0
251 2 12.88523305542209 12.620595709335829 7.9747479483314985 0 0 0
252 2 13.304426108090581 13.939466672891534 7.191450719486819 0 0 0
253 1 15.085624769105815 4.5596614994144025 0.8382414244791848 0 0 0
254 2 15.378408495469687 4.020347040567388 1.5628259432220215 0 0 0
255 2 14.363376324087797 5.1313418978967915 1.1337057155744643 0 0 0
256 1 17.75888339889685 6.190991180370403 7.3644716759144515 0 0 0
257 2 18.08906157491192 5.766297607336379 8.20670468141788 0 0 0
258 2 16.965454314988115 6.619134279934571 7.732829120361417 0 0 0
259 1 17.508961792614414 11.653069787587935 1.0291874646838335 0 0 0
260 2 16.87973157467025 12.358475857549392 1.319305129468889 0 0 0
146 2 7.471981235430752 2.0349658702070452 5.395465997928999 0 0 0
262 1 20.069095951258475 13.14328971562105 7.898983843161515 0 0 0
263 2 20.11194609578829 12.614726371438014 8.763313893872672 0 0 0
264 2 20.984969956942244 13.304429800261039 7.640339290084025 0 0 0
265 1 9.78728609264339 6.082838132025463 2.726361230373689 0 0 0
266 2 9.092375301044584 5.584565362361569 3.1497023063732787 0 0 0
267 2 10.252724240126904 5.580756758264666 2.0040347857855787 0 0 0
268 1 12.182859187103954 7.974388204835843 9.739069202476665 0 0 0
269 2 12.531298398070005 7.438141714673175 8.993991517737067 0 0 0
270 2 11.52376585888738 7.389172181147816 10.231544223828099 0 0 0
271 1 11.995276968127042 13.25387757883042 2.4927627352403685 0 0 0
272 2 12.664397937297354 13.548597333904135 3.118372216085899 0 0 0
273 2 11.364416793114898 12.830100210893296 3.117954507033614 0 0 0
274 1 14.5761116602238 15.195095962986347 9.653741019618566 0 0 0
99 2 4.825866092258163 3.8654352218475823 6.492465804688144 0 0 0
276 2 15.198627616492944 15.28139874192008 10.421251208003948 0 0 0
278 2 16.523509648773327 5.592803545977984 3.2736959755003703 0 0 0
280 1 19.812354322280935 7.697796960047778 9.633285414379591 0 0 0
710 2 26.341670637552337 5.20385083107606 0.4410762095697894 0 0 0
283 1 19.424943779065188 13.2819011483427 2.8021882326094616 0 0 0
289 1 5.775575698216475 6.916506281581538 2.232125382440119 0 0 0
290 2 5.3106380880982105 6.831194884592546 3.108650365855264 0 0 0
291 2 6.571993012327681 7.427332364537944 2.407320460358603 0 0 0
292 1 8.555776479646102 8.406010694252657 8.529673837484046 0 0 0
293 2 9.115753217953523 7.657613911684046 8.1431797626457 0 0 0
294 2 9.137156760286835 9.164722090782531 8.67826855350728 0 0 0
295 1 8.251899713597288 14.1037408962337 2.134840612819341 0 0 0
296 2 7.815579381355103 13.819260013946089 2.968482099800507 0 0 0
298 1 11.174605440263948 15.681434979233503 8.423170266589453 0 0 0
299 2 11.51743029840588 14.920967827539796 7.946242515142291 0 0 0
79 1 3.8267338746413477 8.17473654715302 0.7858826958028352 0 0 0
301 1 13.182439458754834 6.690548252749811 1.6101088516657938 0 0 0
302 2 12.942864931429563 6.528952673959628 2.5428540355093854 0 0 0
303 2 13.89286620052423 7.307440414526905 1.664883757505164 0 0 0
304 1 15.8484755054591 8.212957902622055 8.34956742532347 0 0 0
305 2 15.629728789703497 8.087689965973361 9.316806024289026 0 0 0
306 2 16.715331641223944 8.731844114795368 8.453504434763277 0 0 0
307 1 15.578818339656019 13.629910709416952 1.9634705175989433 0 0 0
93 2 11.672838183817525 7.272491123071748 0.8926496192826557 0 0 0
310 1 18.476576211734837 15.495635690203267 8.760998032513923 0 0 0
311 2 18.572188988472334 14.86760684516009 8.054254720701483 0 0 0
91 1 11.020069265091836 7.869715034107724 0.5519836492712233 0 0 0
315 2 4.3664041038988515 4.297481488451467 1.3855394750072159 0 0 0
316 1 6.386303645559374 6.395134534642154 7.4240593702755096 0 0 0
317 2 6.67649062617267 7.208950100844349 7.007243424237472 0 0 0
321 2 7.109962069787184 11.267894635615741 1.6169874830370723 0 0 0
322 1 9.053092680246847 13.574804419452555 7.486420710876129 0 0 0
323 2 8.284484937203786 14.031838238563791 7.941328025642385 0 0 0
324 2 8.677270946114314 12.714168576283997 7.130356768588935 0 0 0
325 1 11.397539567786483 4.544275377390951 0.7028925697343417 0 0 0
328 1 13.812074451194277 6.298915782846 7.590582869440627 0 0 0
329 2 13.467826580640947 5.457734512904602 7.269042805781902 0 0 0
330 2 14.364442572235626 6.193579085518772 8.441791380519838 0 0 0
331 1 13.786598549451469 11.709058828632935 0.798935463269072 0 0 0
332 2 13.064296346546893 12.322328735747208 1.113808549340508 0 0 0
333 2 14.373626474205752 11.519345562192438 1.5852586586732895 0 0 0
334 1 16.017297242989496 13.354145391216852 7.931874650083436 0 0 0
335 2 16.488115021795135 13.896522761013747 7.279756312432884 0 0 0
336 2 15.444453029414218 14.002034941832353 8.43524831678978 0 0 0
752 2 25.400106035719734 14.938385503054407 5.1088851318657325 0 0 0
340 1 7.182036545594594 8.10169471538862 11.014460409477623 0 0 0
342 2 7.635125694260122 8.148104291021646 10.201054336925523 0 0 0
343 1 6.900499703870611 13.218843428291413 4.434432774576536 0 0 0
367 1 9.967340229486338 14.894462987721127 4.929288579013139 0 0 0
337 1 4.440771056188282 6.524438271415674 4.527701581136472 0 0 0
346 1 9.7052415192205 15.345679588132402 10.787608724023308 0 0 0
347 2 10.2999299144562 15.325272474129232 10.050304653188842 0 0 0
348 2 10.124165847418421 14.679246898770858 11.363756970092355 0 0 0
349 1 12.130526953960889 6.420124177100256 4.127086780167065 0 0 0
350 2 12.08902477892603 6.975692387667292 4.943000795085321 0 0 0
351 2 11.271586839771722 6.3218843628617005 3.7399055928733693 0 0 0
352 1 14.669820022417051 8.40733524180719 11.00756426379679 0 0 0
353 2 14.908768751741441 7.718912618637666 11.663660308621191 0 0 0
354 2 13.821233346379028 8.101218888542776 10.659531957113378 0 0 0
355 1 14.219579704813778 13.59766389163925 4.364795732876953 0 0 0
356 2 14.417168185761765 12.741124449278354 4.813221778839455 0 0 0
357 2 14.854560373317215 13.57377728371193 3.626358981383616 0 0 0
358 1 16.910290833247327 15.171969931294047 11.164121799772468 0 0 0
359 2 16.855788334972996 15.943359309988816 11.8330733756084 0 0 0
360 2 17.439298373779245 15.415424621152615 10.4376968830883 0 0 0
361 1 7.28814390013656 7.816412657222449 5.250611951752739 0 0 0
362 2 6.705340164383582 8.511753735536226 4.919435590071968 0 0 0
363 2 8.198228228992823 8.147273579448935 4.949548215576463 0 0 0
364 1 9.961530928690527 9.370907545704027 11.721335059383879 0 0 0
365 2 9.42880418267131 10.120338539752044 11.350239789596717 0 0 0
366 2 9.455584830726798 9.146130636586975 12.507949384958303 0 0 0
531 2 21.109741354606523 1.4581883512668292 5.264076988833148 0 0 0
211 1 18.244571933982552 9.694423714198917 2.889602044765939 0 0 0
369 2 9.745309199557454 14.629353879126365 5.792695256723604 0 0 0
313 1 3.7511156924056923 4.636142833288594 0.7212421816865672 0 0 0
107 2 10.680169758845706 13.973650166571867 13.253792406376238 0 0 0
372 2 12.646039764061564 15.849961588713281 11.395285665875125 0 0 0
373 1 14.425364185608462 7.560892306638153 5.327905752009645 0 0 0
374 2 15.199906241506765 8.113966804962523 5.234869013297709 0 0 0
375 2 14.345561859302842 7.303924998386868 6.27911996899189 0 0 0
376 1 17.029791446380646 9.52055784794274 12.631227183348642 0 0 0
377 2 17.89118132353746 9.976870128413324 12.570614364216407 0 0 0
378 2 17.18472078031172 8.754813836882542 12.008152227723842 0 0 0
130 1 8.352499155614622 11.843262277702719 10.91465782116641 0 0 0
381 2 16.76931405668316 13.937887603363512 4.929122926394671 0 0 0
382 1 19.46633154914235 16.855067931820408 11.846755113662507 0 0 0
37 1 19.161561126701077 8.285155762122432 6.335242112262935 0 0 0
663 2 2.6968689768427896 5.516460821679099 1.9322389745444346 1 0 0
134 2 11.235609681428922 1.8267128057930038 4.742690249398832 0 0 0
1532 2 26.24789539421865 1.5946233265007506 4.940192627086203 0 1 0
430 1 39.15233936692905 16.888346149761677 13.058389037371446 0 0 0
457 1 16.02840742646377 0.7462503887618506 0.5618753686901446 0 0 0
751 1 24.567171430482215 14.485834175333505 5.1220390721545686 0 0 0
43 1 21.694665715662175 15.029928884898343 6.32915148060196 0 0 0
492 2 24.61325723215381 12.869239851463618 13.22951293181338 0 0 0
78 2 33.014140533612924 3.209292535066888 8.282970913531958 -1 0 0
220 1 8.234228636999088 2.9242967948898846 8.682207603184144 0 0 0
158 2 15.157478984129488 2.195899229360714 5.432183124742417 0 0 0
82 1 6.2772146289891895 9.643361519810465 7.712536114092111 0 0 0
46 1 24.015961273032623 17.045442675532485 13.041656728442774 0 0 0
40 1 21.599176260115332 10.043570616001317 13.266519776151844 0 0 0
327 2 11.025228676032611 3.7079460209786608 0.30701196589255897 0 0 0
112 1 15.45490252245347 6.276976091022169 12.740880408188977 0 0 0
1857 2 12.015785048886354 15.689886220418265 13.502285634677184 0 0 0
123 2 3.3214760534005365 2.073675271678311 4.844722163193935 0 0 0
232 1 15.571205540138056 3.1996008853546845 8.584973459834218 0 0 0
212 2 18.51214614351781 9.021291316055665 2.251450948613742 0 0 0
512 2 19.929273864424722 10.539703404945433 5.211852958215936 0 0 0
207 2 15.741632434309013 1.9678983073459915 1.9113037378731947 0 0 0
281 2 20.270005569431692 7.349290181579516 8.852764378238962 0 0 0
498 2 30.413323654212483 7.021611769928376 13.439428601212706 0 0 0
210 2 19.29932290279019 4.762067362954562 10.399562492981556 0 0 0
219 2 6.129757729695046 1.3303328291918866 1.108826667168707 0 0 0
669 2 5.2030784056373545 12.455259947780647 1.990571138976218 1 0 0
131 2 7.6778273749459744 11.797312519941588 10.197435119161916 0 0 0
148 1 9.615607753774272 3.7420453586764997 11.724943234670915 0 0 0
432 2 9.623832570251453 16.425975907957543 12.205727996136462 1 0 0
216 2 20.825510181739006 10.564043069161913 9.727750309671942 0 0 0
173 2 11.953490316818124 7.040204304798237 13.540158902508505 0 0 0
39 2 18.715796741450102 7.589220897559339 6.809351364589395 0 0 0
344 2 6.730802318181101 14.017015330131112 5.027436407873631 0 0 0
28 1 14.356242242987044 9.9474319971079 13.276838201031076 0 0 0
546 2 32.50792406551642 3.8105852494061376 12.422195469071603 0 0 0
485 2 23.444632386917498 6.544875582663987 13.5156794551184 0 0 0
424 1 36.699626907059766 9.988228522619304 12.877526922636346 0 0 0
638 2 29.178368954491138 5.079009282670204 0.9679492794359198 0 0 0
616 1 30.57579294118821 3.151352773950859 8.757480954099645 0 0 0
384 2 19.418143626267348 16.634570737945875 12.816521923834133 0 0 0
575 2 36.84667144077175 13.657280181877697 13.257803276826714 0 0 0
1197 2 31.69517028104324 1.972939157227155 6.800105746657283 0 1 0
285 2 20.17108253156568 13.532586216129687 3.386434868030961 0 0 0
31 1 14.130968014451387 15.246572757423957 6.5694109078592815 0 0 0
279 2 17.71571176620222 5.387458647597785 2.3566909184363722 0 0 0
705 2 20.549113266395604 10.81458237099862 0.15003990334728007 0 0 0
215 2 21.576192407167216 11.569185785661936 10.588600818779364 0 0 0
722 2 18.575415811909416 6.652054031081103 3.9976899608513636 0 0 0
206 2 16.695318653551837 2.2417756340947252 3.113135111064305 0 0 0
284 2 19.790345975345424 12.775850353499163 2.0697140598037826 0 0 0
312 2 17.708144615992083 16.003675354192378 8.427344716579695 0 0 0
763 1 32.03875329013772 14.798751868585281 5.372631639559088 0 0 0
41 2 21.630281641652935 9.465065685511984 12.495656357213848 0 0 0
85 1 8.806487987064365 0.7302465712886247 0.9875134364076298 0 0 0
385 1 22.536658676237966 5.256580232298762 4.202435784546577 0 0 0
386 2 21.785511082091872 4.668988572022162 3.9761796508891587 0 0 0
387 2 22.8339502087215 4.7946153448195306 5.039497609155565 0 0 0
388 1 25.07381152412921 7.180725034757214 11.065911611623457 0 0 0
389 2 25.637572951366433 6.700106024663708 11.789918532004405 0 0 0
390 2 24.38339551939855 6.616425907773221 10.670962180545173 0 0 0
391 1 24.759693418443 11.914471390113617 3.9303932189986366 0 0 0
392 2 24.0289836589239 11.378337631043152 3.523482214287884 0 0 0
393 2 25.272207583975096 12.241633292116019 3.222720909056576 0 0 0
394 1 27.616221824859778 13.900955215449166 11.071609838184816 0 0 0
395 2 27.42636826306724 14.79603899198644 11.540091020691193 0 0 0
396 2 26.752759900567664 13.60228685134258 10.715510897978454 0 0 0
397 1 29.921094162351267 5.303719169885949 4.300377493344915 0 0 0
398 2 29.155400814922338 4.81838262466515 3.9174596123022383 0 0 0
399 2 30.488604897096682 5.576409158397203 3.5139890248659866 0 0 0
400 1 32.436771873340234 6.94727337539788 10.88544598019137 0 0 0
401 2 32.34175878950337 7.901457184115397 11.168991965051468 0 0 0
402 2 32.93772187654789 6.59959984968472 11.654031258919026 0 0 0
403 1 32.45803656689461 12.449242554089647 4.357165835419642 0 0 0
404 2 32.80741445308313 11.968112476559812 5.174233485268825 0 0 0
405 2 33.24967209151114 12.632450002888715 3.743019370869567 0 0 0
406 1 34.71138826507026 14.347989808342184 10.766332582982923 0 0 0
407 2 35.29127613281537 13.838005980166779 11.370730997139416 0 0 0
408 2 35.377847853220885 14.756760750383323 10.19225567165932 0 0 0
409 1 26.623980950175877 8.077770689199696 6.46096963315203 0 0 0
410 2 26.12354783718486 7.630044684100157 7.173606293697095 0 0 0
411 2 27.43884344609573 8.405925042908427 6.926789135303066 0 0 0
413 2 29.542557369194522 9.154946168921935 12.641944641524473 0 0 0
467 2 21.758763908539834 10.183521309366816 6.983451411837101 0 0 0
416 2 28.362284543276857 14.321486233979744 6.724855389534109 0 0 0
300 2 10.273496245512526 15.882259601676543 8.013462410854096 0 0 0
664 1 34.83972638383554 7.509089974814917 9.61914056443603 0 0 0
420 2 31.781180426288497 16.178245438356452 12.775630067625073 0 0 0
693 2 31.537798023466458 14.131107748052576 1.8238408615071873 0 0 0
425 2 35.97662651523387 10.514513369986327 12.451066535213329 0 0 0
730 1 24.28661476778705 15.227687148161316 11.208988678335109 0 0 0
460 1 18.674624936137686 2.6902596074089797 7.791334266108163 0 0 0
433 1 20.311012883198 3.9065736923364076 3.375596139858552 0 0 0
434 2 19.86269411274649 4.163554006240001 2.544477181201424 0 0 0
435 2 20.80108039396936 3.0753845306788543 3.169492060797451 0 0 0
436 1 22.944763054336928 5.552521029688573 9.859260196014617 0 0 0
437 2 23.09509413225918 4.5721270603835915 9.653183778711353 0 0 0
438 2 22.768174918034482 5.938721828408501 8.982537078769546 0 0 0
439 1 22.578145386645232 10.612534470319101 2.7148831244162785 0 0 0
440 2 22.989575097716862 9.823864222763971 2.3511758281020727 0 0 0
441 2 21.92600191781945 10.408923484766998 3.4171605722655496 0 0 0
442 1 25.32474449573689 12.466287768996096 9.857418176969587 0 0 0
443 2 24.883293896887384 12.880496601307572 9.08804202295385 0 0 0
444 2 25.442039076934247 11.563024483508581 9.506559808130868 0 0 0
445 1 27.752811099598503 3.7182193961374255 3.1371628858602634 0 0 0
446 2 27.300229723783865 4.18036332584134 2.3953654385858907 0 0 0
447 2 27.85863654675683 2.7701516821687413 2.848325978839447 0 0 0
448 1 30.24606694285074 5.536055657730538 9.985801428587772 0 0 0
449 2 30.447005806878135 4.722385217263576 9.469029524533257 0 0 0
450 2 31.097049971301995 5.961682998143338 10.232691125905655 0 0 0
451 1 30.44260501972481 10.936168585991867 3.0020892827657235 0 0 0
452 2 31.20715159094039 11.295534963397621 3.4565020857913353 0 0 0
453 2 29.777530651275008 10.556956302017808 3.623785476996812 0 0 0
454 1 32.78486766776656 12.409304391909448 9.891359558098452 0 0 0
455 2 32.2593007325579 12.771788273411794 9.12656062271314 0 0 0
456 2 33.495370500686064 13.04299747797477 10.17307303837319 0 0 0
682 1 25.885578265291947 15.585222044929289 8.988115015304722 0 0 0
668 2 33.99543764360174 13.692774605502384 2.3827276951510767 0 0 0
418 1 31.499006178536554 16.872652954152386 13.45843705735096 0 0 0