LAMMPS data file via write_data, version 15 Apr 2020, timestep = 6614000

576 atoms
2 atom types

4.1700568913071479e-01 1.7502995310840312e+01 xlo xhi
2.1200468913083981e-01 1.7297994310840437e+01 ylo yhi
5.6200568913070015e-01 1.7647995310840678e+01 zlo zhi

Masses

1 16
2 2

Atoms # atomic

296 2 2.2133239752393159e+00 2.8758593747687007e+00 1.5100515017236038e+00 0 -4 1
295 1 1.4805862373760539e+00 3.3703795582812419e+00 1.1606964056768900e+00 0 -4 1
555 2 1.8858273502658613e+00 6.6906978610324508e-01 4.3391722374359682e+00 -2 8 9
297 2 6.1362553700099776e-01 2.8938546750633791e+00 1.2266839842747221e+00 0 -4 1
49 1 4.0144812987811633e+00 3.5277532136210459e+00 4.1408497840517873e+00 8 3 -4
202 1 3.5551261875964637e+00 1.5779925547782716e+00 1.6785718379700587e+00 -2 2 1
204 2 4.4531631261065394e+00 1.8217945922317558e+00 1.9456595851640113e+00 -2 2 1
554 2 2.3490028353088199e+00 7.1143797966156552e-01 2.8621227933801063e+00 -2 8 9
553 1 1.7430614165418878e+00 2.3802743179516545e-01 3.4628688606539746e+00 -2 8 9
203 2 3.5380741282820667e+00 7.0676046043773355e-01 1.1448801345522006e+00 -2 2 1
50 2 3.4842815962982461e+00 4.1654451122859868e+00 3.6087576557023020e+00 8 3 -4
129 2 6.7859048014799956e+00 3.3459524548416020e-01 4.2878788246880752e+00 -2 -2 0
110 2 5.6793544176210915e+00 3.8954523809725323e+00 1.8564039384957662e+00 -1 -3 -2
109 1 5.7985882674347504e+00 3.1854570283369066e+00 2.4888859556623446e+00 -1 -3 -2
111 2 5.1244299840431156e+00 3.2902495748270373e+00 3.1713185963740691e+00 -1 -3 -2
128 2 6.5796627078777927e+00 1.1683389046076136e+00 3.0074559992248222e+00 -2 -2 0
13 1 8.2075231405419125e+00 3.8951683498041874e+00 3.3230406713298124e+00 1 1 4
14 2 7.3053511834611982e+00 3.5995687394861937e+00 3.2182541783700951e+00 1 1 4
15 2 8.6142739004221518e+00 3.3345076540724037e+00 4.0242203931895073e+00 1 1 4
360 2 8.5830666608197586e+00 3.0039671739625140e+00 1.8253040896683443e+00 2 1 4
358 1 8.8468455326015345e+00 2.7630951499457290e+00 8.9798207526695961e-01 2 1 4
127 1 7.1280221206474899e+00 4.3960053008261263e-01 3.3839943667220305e+00 -2 -2 0
201 2 1.0851113704120802e+01 7.4677137422765283e-01 1.9510751085068376e+00 4 -5 0
199 1 1.1178845774304889e+01 1.4693723578983873e+00 1.4063799344768873e+00 4 -5 0
169 1 1.3101837035052995e+01 3.7608143988939249e+00 3.3661925080355228e+00 1 2 -4
359 2 9.6958711262937491e+00 2.2269862381229069e+00 1.0023449524559263e+00 2 1 4
275 2 1.2107004628501294e+01 3.6236224084802195e+00 1.0959313473532428e+00 -5 -1 -2
171 2 1.2319070517882800e+01 4.3138080523803728e+00 3.2789632438842475e+00 1 2 -4
468 2 1.2241229489683768e+01 4.6109424979211466e-01 4.5566187321219553e+00 2 -2 -2
546 2 1.3263706837089721e+01 1.6192510368811339e+00 3.2059305297701384e+00 -1 5 0
72 2 1.6410956870246203e+01 1.7749932222245144e+00 2.1796064982378116e+00 2 4 -4
26 2 1.5454935463433921e+01 1.7917498435364372e+00 4.0071510162762909e+00 -2 -6 0
27 2 1.5867073045615623e+01 3.2114286045625189e+00 3.4106480089902340e+00 -2 -6 0
544 1 1.3784124043242569e+01 7.9271078001501827e-01 3.4361515414012946e+00 -1 5 0
25 1 1.6159125161593408e+01 2.4485455435262087e+00 3.9573303405254214e+00 -2 -6 0
70 1 1.6532119742731155e+01 1.7120121700440967e+00 1.1999124232621527e+00 2 4 -4
170 2 1.3841597663661441e+01 4.2828593312255130e+00 2.8995641881925280e+00 1 2 -4
71 2 1.5697289475579051e+01 1.8199460938263674e+00 7.9598153851010955e-01 2 4 -4
545 2 1.3991573932246478e+01 3.2337588327670308e-01 2.5791839120443507e+00 -1 5 0
270 2 1.6973615248297174e+00 4.6340320755698308e+00 2.4806713703898406e+00 8 4 8
268 1 2.2565019458807534e+00 5.1681252555698842e+00 3.0929326789758087e+00 8 4 8
269 2 2.1767588619267393e+00 6.1273749571705727e+00 2.7099977853645250e+00 8 4 8
504 2 1.5816370334067520e+00 5.8195080654687619e+00 4.4358529579129975e+00 -1 3 2
441 2 1.7939075364089099e+00 7.8085038076654198e+00 1.1771168202217752e+00 7 -1 2
439 1 1.9472517107090352e+00 7.6818861834136731e+00 2.1298213229654070e+00 7 -1 2
515 2 4.3740399257694484e+00 7.4534843821571686e+00 6.4948755167793504e-01 5 4 -3
440 2 1.2852144254181574e+00 8.2864998982681897e+00 2.5374562428612446e+00 7 -1 2
542 2 4.6719034978669995e+00 8.4388184038350911e+00 3.9866154574802621e+00 2 2 6
503 2 5.8507001818970494e-01 7.0165909757266673e+00 4.7985896822290339e+00 -1 3 2
543 2 4.4228364905543414e+00 7.1767033751992120e+00 4.7903594085476087e+00 2 2 6
215 2 7.3761208799644713e+00 5.9872105088296514e+00 2.9133229237730789e+00 2 -9 3
214 1 7.3016043766894674e+00 6.9711420565549158e+00 2.9730078218937201e+00 2 -9 3
216 2 6.4592951693714662e+00 7.1620567887625954e+00 3.3024262922572194e+00 2 -9 3
541 1 5.1289307736673271e+00 7.6735386658543918e+00 4.4380360919410320e+00 2 2 6
266 2 8.2706967467638108e+00 7.1366109882693882e+00 7.8084568332066306e-01 -4 0 3
300 2 8.8512441398826223e+00 7.6850543557334259e+00 3.9750128862756009e+00 1 0 7
267 2 6.7924809010935876e+00 7.6517725600771298e+00 6.0344321745759022e-01 -4 0 3
356 2 5.3296433352239427e+00 5.4438972548001789e+00 5.9037879511213853e-01 2 0 -6
488 2 1.1820366917369761e+01 8.6351827827449767e+00 2.4941453584033844e+00 -6 0 -5
276 2 1.2626335535654519e+01 5.0433603096234298e+00 6.3913266927675183e-01 -5 -1 -2
476 2 1.0076310560359994e+01 4.5370253792989033e+00 3.7891102796187934e+00 0 1 -6
477 2 1.0691751281581675e+01 5.9115715701288885e+00 3.9611172200798346e+00 0 1 -6
475 1 1.0719712430755578e+01 5.1111526240555696e+00 3.3728516051688673e+00 0 1 -6
505 1 9.8866112597679852e+00 6.4251499461822403e+00 1.1381896070973214e+00 -1 -1 5
507 2 1.0171928077539802e+01 5.8181544141857238e+00 1.8713238215022017e+00 -1 -1 5
487 1 1.2706368866137806e+01 8.3417778449626443e+00 2.8400273885181218e+00 -6 0 -5
401 2 1.0232642068305212e+01 8.0760774582342947e+00 1.3209409795699985e+00 -2 5 -3
489 2 1.2628748019984519e+01 7.9095548757113541e+00 3.7045172312042465e+00 -6 0 -5
293 2 1.3083651870285717e+01 7.3124410915144118e+00 1.5439712131607677e+00 -1 8 2
292 1 1.3189756953911278e+01 6.7453685198434012e+00 7.1893942190380833e-01 -1 8 2
298 1 9.4858852261657454e+00 7.3777669392123606e+00 4.6019289695391237e+00 1 0 7
493 1 1.5616690188184151e+01 4.9068359290137522e+00 2.7137603505580068e+00 1 -3 3
494 2 1.5874229958185770e+01 5.4342413202564259e+00 1.9577967566199861e+00 1 -3 3
495 2 1.5344785776810410e+01 5.3686126174614817e+00 3.5153168213766577e+00 1 -3 3
520 1 1.7305109916915857e+01 8.6057595126253013e+00 4.3344679594261484e+00 4 1 3
294 2 1.4150995671411925e+01 6.7720357136359102e+00 6.3976544822572412e-01 -1 8 2
51 2 4.3826400000158028e+00 4.0252664161075238e+00 4.9031001620337609e+00 8 3 -4
524 2 2.9641743880568816e+00 1.2384026047801981e+00 6.6266756116988796e+00 1 4 -3
473 2 2.9067410383412513e+00 2.8410094221022191e+00 5.0344232150260924e+00 -2 -5 -1
472 1 2.1799073797191593e+00 2.2744418223957723e+00 5.3919888866182735e+00 -2 -5 -1
474 2 1.5669629316529763e+00 2.9317383437389419e+00 5.7386498432451116e+00 -2 -5 -1
387 2 4.6758860573434511e+00 1.2082685980926302e+00 7.9913794504168454e+00 3 -5 -1
525 2 2.6272589930777217e+00 3.0469479078414774e-01 7.7422961758115942e+00 1 4 -3
523 1 3.3889108620835322e+00 5.5422068299473581e-01 7.1826307022181828e+00 1 4 -3
239 2 6.8742551910981344e+00 7.9115153541772432e-01 6.4622574786442133e+00 -3 -5 -6
385 1 5.3478256660980117e+00 1.5823250101326116e+00 8.6076434583139498e+00 3 -5 -1
386 2 6.2373284254537156e+00 1.5908636822048907e+00 8.2902672290439590e+00 3 -5 -1
90 2 7.2784594018456010e+00 3.7951871005977282e+00 7.7006036301717584e+00 0 -2 5
120 2 8.4974054463144970e+00 1.6780144821762348e+00 8.0509597279374994e+00 2 -3 0
118 1 8.0074119650455557e+00 1.9449077095183409e+00 7.2661527033253881e+00 2 -3 0
119 2 8.6704483822426770e+00 2.1681037556094171e+00 6.6026965793904191e+00 2 -3 0
416 2 1.2473318857972421e+01 6.4746136840812363e-01 7.8902713400292219e+00 2 0 -3
466 1 1.1350623189074396e+01 3.7503048589914484e-01 5.0103142216577847e+00 2 -2 -2
327 2 1.2439405326935050e+01 2.8658821475626568e+00 7.5418758207626073e+00 -2 -3 6
392 2 1.0417450036680599e+01 2.0381243675702994e+00 5.0742400344712495e+00 -1 -6 6
391 1 9.8039417995409419e+00 2.7536845366890002e+00 5.4967149056217535e+00 -1 -6 6
393 2 1.0320349190169393e+01 3.3967669623784222e+00 5.9704916150591698e+00 -1 -6 6
325 1 1.2173125113294631e+01 2.1865416269955613e+00 8.2238028897089990e+00 -2 -3 6
326 2 1.1657357784991554e+01 2.5920112580810186e+00 8.9876986030955788e+00 -2 -3 6
220 1 1.7261424939336877e+01 3.8889383447063626e+00 6.2122961131859507e+00 0 2 4
414 2 1.5307985444980957e+01 9.1921636987290078e-01 7.7908414275665523e+00 -3 2 2
413 2 1.5773784763305294e+01 6.5183632830626925e-01 6.4443664988555849e+00 -3 2 2
288 2 1.3519818712051087e+01 3.1855734952042738e+00 5.1729495198166857e+00 4 -3 0
333 2 1.6631501551641936e+01 4.0665617972921311e+00 8.0220104097360512e+00 0 -1 -8
331 1 1.6669357237332825e+01 4.1994661101108273e+00 8.9885948552888291e+00 0 -1 -8
222 2 1.6595617521348572e+01 3.4778203102793537e+00 5.6133612415672660e+00 0 2 4
412 1 1.5599386889509457e+01 1.4427543774399074e+00 7.0383593364146524e+00 -3 2 2
287 2 1.4364769597251264e+01 2.4377602525651079e+00 6.4101733657440239e+00 4 -3 0
286 1 1.3797575823859813e+01 3.1644773205465047e+00 6.1077855971757486e+00 4 -3 0
273 2 1.7489944197783764e+01 3.6647618534370718e-01 7.8831075704168079e+00 2 0 1
192 2 4.0622858398977133e+00 8.2770513640156977e+00 8.1218322562040406e+00 -1 -3 -6
502 1 1.0708062975260857e+00 6.2436583837069453e+00 5.2200973165308167e+00 -1 3 2
281 2 1.8067567207120629e+00 4.7803359599250976e+00 7.9812168800126360e+00 0 0 -6
306 2 2.2998181540480074e+00 7.0822708316533918e+00 6.2533058599659066e+00 1 4 0
282 2 2.9226447492848497e+00 4.5052424608575308e+00 8.9220460984599850e+00 0 0 -6
280 1 2.5478371305667786e+00 5.2382683927605225e+00 8.3260105883713429e+00 0 0 -6
63 2 3.9317804602452462e+00 5.2519370811657451e+00 7.0712258095952638e+00 3 -2 2
304 1 3.0802966724745624e+00 7.6600421745118412e+00 6.3359755056500333e+00 1 4 0
61 1 4.5623129296145137e+00 4.8093828720215281e+00 6.4286971329286233e+00 3 -2 2
305 2 2.6916597578588344e+00 8.5637305885950994e+00 6.1295809818252689e+00 1 4 0
89 2 6.8678324758608102e+00 4.9435463653278378e+00 8.7343497296516741e+00 0 -2 5
88 1 6.8327121087710259e+00 4.6494291315936076e+00 7.7505766265878187e+00 0 -2 5
62 2 5.3928911466888643e+00 4.7950271093850789e+00 6.9259576916128154e+00 3 -2 2
159 2 8.8802271152688519e+00 6.9395456971828633e+00 7.6020021011293446e+00 -4 4 -9
190 1 4.8401003673637124e+00 8.5263108211183454e+00 8.5963250106260531e+00 -1 -3 -6
191 2 5.4968983367185755e+00 8.4851286341717511e+00 7.8402674621727577e+00 -1 -3 -6
158 2 8.0826344096465093e+00 5.6541668353277048e+00 7.0146664811154462e+00 -4 4 -9
213 2 7.2098267199026731e+00 7.5755273497173841e+00 6.5190972757611929e+00 0 -3 -3
157 1 8.5355568135820814e+00 6.4804669022590291e+00 6.7823087698601743e+00 -4 4 -9
212 2 6.0724463350188120e+00 8.1107201691378847e+00 5.7483926142742741e+00 0 -3 -3
211 1 6.4497058810550199e+00 8.2220607554955905e+00 6.6254620584498003e+00 0 -3 -3
153 2 1.1660160743740551e+01 5.3863090893975434e+00 6.2217536095206842e+00 5 0 1
410 2 1.2222126487919311e+01 8.5649685625542453e+00 8.3906137438984860e+00 1 -1 1
152 2 1.0553379209440088e+01 5.4048482961511493e+00 7.2046235536645558e+00 5 0 1
411 2 1.2609958744557774e+01 7.0691174152381091e+00 8.6879204773774958e+00 1 -1 1
92 2 1.0433036132354999e+01 7.5888088138889556e+00 8.9405754926915311e+00 0 -2 -1
299 2 9.0211216206492981e+00 6.9069612912493028e+00 5.4055339577400323e+00 1 0 7
409 1 1.1945482335299404e+01 7.6312118434383045e+00 8.2057495172865185e+00 1 -1 1
151 1 1.1050696492955003e+01 4.7521820655098637e+00 6.6884901831428820e+00 5 0 1
322 1 1.2320793899066942e+01 6.8241786912346942e+00 5.1747375759905907e+00 2 4 -1
323 2 1.2151835124238870e+01 7.4994999664957511e+00 5.8623706944873346e+00 2 4 -1
75 2 1.5035240655719170e+01 6.7240776064266736e+00 8.3402293792135112e+00 7 -2 -4
74 2 1.6521023628433301e+01 7.0944769557034926e+00 8.2903049897316912e+00 7 -2 -4
449 2 1.5134752544879010e+01 8.7094348667779364e+00 6.8676981145949698e+00 0 1 -3
154 1 1.4797336085459090e+01 5.8316106138012191e+00 5.5646924308797523e+00 -4 -4 2
155 2 1.5367293907850049e+01 6.0567275687530673e+00 6.2743783752541491e+00 -4 -4 2
324 2 1.3279964739298242e+01 6.6020591153344181e+00 5.2495729139509031e+00 2 4 -1
221 2 1.7392260816510309e+01 4.7896395795412436e+00 5.7768568783114924e+00 0 2 4
73 1 1.5699886801844494e+01 7.1064977546907473e+00 7.7681148080460751e+00 7 -2 -4
156 2 1.4538577965279469e+01 4.9060969799081953e+00 5.8196054202690535e+00 -4 -4 2
29 2 1.8475932161955866e+00 1.4999949688756515e+00 1.1893682836412014e+01 0 2 6
28 1 1.6157506497151892e+00 1.5448791883085535e+00 1.2848412855595102e+01 0 2 6
532 1 1.4216823340219804e+00 2.4839323158495121e+00 1.0034377323124620e+01 4 4 5
564 2 3.8624106965565081e+00 1.7072544293144707e+00 1.3084580665676645e+01 -6 -2 1
30 2 1.6693661295772195e+00 2.5219521458401553e+00 1.3089929199470575e+01 0 2 6
562 1 4.6625301396332670e+00 1.4157978705149492e+00 1.2596328361461412e+01 -6 -2 1
530 2 3.0864846654147815e+00 2.9045670700335329e+00 9.9828033900157571e+00 3 1 4
549 2 3.9179582605633900e+00 4.4693188506950756e+00 1.1052035737952199e+01 0 3 -2
529 1 3.9053528885620241e+00 3.3856458129887090e+00 9.9400596527568617e+00 3 1 4
533 2 1.3506806546560775e+00 1.7067636659280843e+00 9.4952428642850215e+00 4 4 5
42 2 3.9189863264398324e+00 5.3899117436411026e-01 9.8270992444431453e+00 -2 0 3
534 2 7.6530750164635242e-01 3.0812401192007388e+00 9.6852936356383346e+00 4 4 5
531 2 4.5111500143424381e+00 2.8974736310210760e+00 9.3320712187111674e+00 3 1 4
41 2 3.7127661309485460e+00 6.3707052683717524e-01 1.1371973852410987e+01 -2 0 3
136 1 1.7857128070639334e+00 4.3460358731133475e+00 1.3045614871511965e+01 3 -5 0
563 2 5.2687030603784413e+00 1.0469962358555049e+00 1.3254577317823037e+01 -6 -2 1
225 2 6.9423291919807104e+00 3.5897740961844873e+00 1.1217768633578022e+01 1 4 -3
223 1 7.0891733826441703e+00 2.7044519974675816e+00 1.1437137676738633e+01 1 4 -3
224 2 6.2229407155583365e+00 2.3067675774655148e+00 1.1557033925417535e+01 1 4 -3
205 1 8.6916908103971338e+00 1.2974586745948629e+00 9.8068620726142601e+00 -5 3 -2
207 2 8.0871857001044116e+00 1.8541659851800891e+00 1.0387153291254167e+01 -5 3 -2
291 2 8.0860312471629658e+00 2.7334673274420491e+00 1.2801716636586114e+01 3 -1 -4
206 2 9.5320247101073026e+00 1.7562372777414095e+00 1.0026573092400785e+01 -5 3 -2
552 2 1.0394804068694707e+01 3.6362032635502763e+00 1.0731325001416344e+01 3 -2 7
550 1 1.0851807591758853e+01 2.8458662115666544e+00 1.0366734510225339e+01 3 -2 7
132 2 1.1526673167365102e+01 1.5444807343386751e+00 1.2955780936983054e+01 2 5 -8
551 2 1.1265907314017333e+01 2.2503507068114437e+00 1.1067498374339088e+01 3 -2 7
130 1 1.1929782616365886e+01 1.1655084945474865e+00 1.2087007296018280e+01 2 5 -8
492 2 1.3863810957949179e+01 1.3869091016950699e+00 1.1933841844781954e+01 0 0 -7
498 2 1.7164208073065126e+01 5.2849220516549789e-01 1.2542829543803675e+01 -3 6 -2
342 2 1.4418792262932062e+01 2.8839680039152520e+00 1.0596118287907563e+01 1 1 2
576 2 1.4615319002575808e+01 3.5534452452980596e+00 1.2565043749911542e+01 -2 3 -3
490 1 1.4721511872451307e+01 1.8654859464550706e+00 1.1712418831569126e+01 0 0 -7
491 2 1.5424301682685332e+01 1.1857204635988245e+00 1.2049323923398136e+01 0 0 -7
340 1 1.4182460690454855e+01 3.4235016024588321e+00 9.7845463656346094e+00 1 1 2
574 1 1.4585486999684329e+01 4.3133545793022590e+00 1.3191393767309213e+01 -2 3 -3
258 2 1.4548406967282242e+01 5.3301536989358556e-01 1.0015398963177043e+01 -2 5 4
341 2 1.3519417844628123e+01 2.7846447936624386e+00 9.3088882780440922e+00 1 1 2
332 2 1.5789806467239535e+01 3.8926079710365693e+00 9.3100435297294801e+00 0 -1 -8
208 1 8.2415961898940560e-01 7.1252768788048542e+00 9.5271464006940665e+00 -3 2 0
209 2 4.3711176368185911e-01 6.7890052444131248e+00 1.0303318263080305e+01 -3 2 0
348 2 5.1889924353894479e-01 5.1636107171645405e+00 1.2216043037808387e+01 -2 3 -2
547 1 3.9382673712139189e+00 5.1993091756771221e+00 1.1718675847505025e+01 0 3 -2
548 2 4.5599931936035745e+00 5.0908856949358761e+00 1.2421497481591821e+01 0 3 -2
137 2 2.4994782601519376e+00 4.6365663994224686e+00 1.2418059773861806e+01 3 -5 0
479 2 1.6819986939478107e+00 8.7120009348586684e+00 1.2360463515193597e+01 0 -1 -2
210 2 1.5122042510380906e+00 6.4899583916477814e+00 9.2319653534598558e+00 -3 2 0
519 2 4.8778974838933653e+00 6.6861310753547976e+00 1.1090376547624132e+01 3 1 -6
227 2 7.9665819123931536e+00 5.0664303638388919e+00 1.0437877995490002e+01 1 2 4
226 1 7.0149344448165865e+00 5.1192411228487309e+00 1.0245590269062566e+01 1 2 4
228 2 6.7349560636249697e+00 6.0447259502799406e+00 1.0424824503465469e+01 1 2 4
517 1 5.5874329599850592e+00 7.3019366135030079e+00 1.0788603911434315e+01 3 1 -6
518 2 5.0970881106456529e+00 7.7230701241596034e+00 1.0019487161953624e+01 3 1 -6
93 2 9.1603789295112232e+00 8.3271182184204928e+00 9.4592642950580199e+00 0 -2 -1
91 1 9.4659880163859338e+00 7.4938702122830865e+00 9.1226612955357034e+00 0 -2 -1
180 2 9.4655403765620036e+00 5.1424610603830123e+00 1.2002073823786231e+01 -2 6 1
178 1 9.6846261765859811e+00 4.9868376959221958e+00 1.1037938674357239e+01 -2 6 1
179 2 1.0060885774643461e+01 5.8732004927467365e+00 1.0735562069059304e+01 -2 6 1
176 2 1.2527700681526046e+01 6.7063014460589736e+00 1.1914038618133686e+01 -2 -7 -1
177 2 1.1459893678787447e+01 6.3486228103557858e+00 1.2991718516527399e+01 -2 -7 -1
175 1 1.1612921585958079e+01 6.8902016072972510e+00 1.2177500537245791e+01 -2 -7 -1
510 2 1.1563390413144614e+01 8.6260191901526113e+00 1.2003725897278475e+01 -1 -1 -2
346 1 1.6868972947186961e+01 5.5199578317132794e+00 1.1649932977219601e+01 -3 3 -2
394 1 1.3769117444345609e+01 6.1125563201120103e+00 9.4004682942874922e+00 6 1 1
59 2 1.4317756705012199e+01 7.7995901158329559e+00 1.2367501107665298e+01 -1 -4 1
58 1 1.4398270571258651e+01 6.9754887155927507e+00 1.1866335239226256e+01 -1 -4 1
60 2 1.4641912208556212e+01 6.2034304373454896e+00 1.2373643944557744e+01 -1 -4 1
347 2 1.6812668939878829e+01 4.9381830879416526e+00 1.0922584433194219e+01 -3 3 -2
396 2 1.4074904289014118e+01 6.3970723704415615e+00 1.0290244518570553e+01 6 1 1
395 2 1.3797991400133057e+01 5.1072138561954379e+00 9.4362138448742616e+00 6 1 1
76 1 1.7155482730322237e+01 8.2001847969878163e+00 1.2434238222343714e+01 -2 -2 -3
78 2 1.6585974585328387e+01 7.3845299038033225e+00 1.2435388572800289e+01 -2 -2 -3
24 2 1.2454599298778948e+00 1.1633488185597838e+00 1.5079255972608557e+01 3 -6 -3
45 2 2.2888156195146969e+00 3.2473083147265780e+00 1.5149887355279484e+01 6 -2 3
44 2 1.4574617243287111e+00 2.9287064587885161e+00 1.6501416339790971e+01 6 -2 3
43 1 1.5114542525363432e+00 2.7857709609501389e+00 1.5529087308285991e+01 6 -2 3
184 1 4.6751216400964584e+00 4.2648146305969590e+00 1.5493429105502166e+01 1 -1 -1
22 1 1.3008567347715796e+00 2.4615208378786074e-01 1.5348772758932679e+01 3 -6 -3
312 2 4.6636578269626812e+00 9.8712234843665581e-01 1.5845001936416503e+01 -2 2 3
311 2 6.1014327380225764e+00 1.5209361611753305e+00 1.5852299795650422e+01 -2 2 3
310 1 5.2049695481388030e+00 1.6133643623692782e+00 1.5442898186478669e+01 -2 2 3
185 2 4.9172039601354856e+00 3.3318691643412390e+00 1.5437730824829483e+01 1 -1 -1
262 1 7.6647410550686566e+00 1.2474923402797491e+00 1.6093118257647561e+01 -6 2 0
289 1 8.4923273675706525e+00 2.4922173983094917e+00 1.3662319959801122e+01 3 -1 -4
290 2 7.7504614820171867e+00 2.5362479826578466e+00 1.4293791890810528e+01 3 -1 -4
263 2 8.0159531591515467e+00 1.6499271517886565e+00 1.6961942468888516e+01 -6 2 0
426 2 8.7355639261216069e+00 3.9884774785951453e+00 1.6455208446763258e+01 3 -1 5
264 2 8.2664920207049484e+00 5.9409749714548599e-01 1.5728149620545615e+01 -6 2 0
274 1 1.2160231503069642e+01 4.2393353751999658e+00 1.7475671043049488e+01 -5 -1 -3
399 2 1.1513045323831605e+01 3.0782744397365192e+00 1.4247098292937959e+01 3 2 2
397 1 1.1085194022135170e+01 2.1554463839544016e+00 1.4322761267147804e+01 3 2 2
398 2 1.0142535886457207e+01 2.2757784834566288e+00 1.4063165787600974e+01 3 2 2
8 2 1.1525239067826234e+01 1.0935986868215157e+00 1.5466919354667537e+01 4 2 4
7 1 1.1939095940706787e+01 6.4671853495018072e-01 1.6205523515090192e+01 4 2 4
425 2 1.0139346597864490e+01 4.3263160792803772e+00 1.6145338312753417e+01 3 -1 5
432 2 1.2995057771214748e+01 4.3717207532964286e+00 1.3758238616075310e+01 -7 -5 3
434 2 9.3827258332507988e+00 3.5889347086435919e-01 1.4014644962238556e+01 -6 4 -1
200 2 1.1478261258017843e+01 1.0229432778279026e+00 1.7623075679903646e+01 4 -5 -1
363 2 1.6959143675769461e+01 3.3879819248062106e+00 1.5363204278103796e+01 -9 2 -6
501 2 1.3541083900592570e+01 3.2785906083165477e+00 1.6640927568699077e+01 0 1 -2
361 1 1.6116724726253253e+01 3.8386500911814663e+00 1.5490487868305951e+01 -9 2 -6
575 2 1.5341042277494738e+01 4.1994002674147435e+00 1.3759191719355563e+01 -2 3 -3
500 2 1.3773277561454256e+01 1.9765572364342143e+00 1.5965880589027160e+01 0 1 -2
499 1 1.4206040767233800e+01 2.5376693819067508e+00 1.6566603498000642e+01 0 1 -2
362 2 1.5419310005689601e+01 3.3205929258935014e+00 1.6020874925861374e+01 -9 2 -6
453 2 3.9495829861504115e+00 8.1222478707061434e+00 1.3474517376713164e+01 -3 12 -2
514 1 3.9909186762539846e+00 6.5284424159208099e+00 1.7603159732945795e+01 5 4 -4
388 1 2.5301776991529228e+00 6.1942034797453225e+00 1.4970719793372021e+01 6 -2 0
138 2 1.9332915416850767e+00 4.9509856438976465e+00 1.3826101673473621e+01 3 -5 0
390 2 3.0299432752660227e+00 5.6577108961675222e+00 1.5601709325327683e+01 6 -2 0
164 2 1.3607617670156951e+00 7.2444073563759135e+00 1.5776922372590048e+01 6 -2 -3
389 2 3.2071219506890500e+00 6.6767293339783080e+00 1.4455651108232788e+01 6 -2 0
451 1 4.5977571566639419e+00 7.8214281600237410e+00 1.4112739063570599e+01 -3 12 -2
163 1 9.9937986794027589e-01 7.8250790878593337e+00 1.6506379642155458e+01 6 -2 -3
516 2 3.2455107415180016e+00 6.8859722138706116e+00 1.7137714370649626e+01 5 4 -4
165 2 1.4681526738631347e+00 8.6868252604508367e+00 1.6359979284495132e+01 6 -2 -3
48 2 6.8761228052339982e+00 5.4164002085597795e+00 1.3625672558439247e+01 3 0 -1
46 1 5.9353888488770181e+00 5.4041969625713584e+00 1.3426840943586637e+01 3 0 -1
357 2 6.8101724173564371e+00 5.6739759708754978e+00 1.7445857991834082e+01 2 0 -7
186 2 5.2716958601351873e+00 4.5830118152436317e+00 1.6176928777224283e+01 1 -1 -1
47 2 5.6142131024887387e+00 4.8600719205185765e+00 1.4184719461021109e+01 3 0 -1
556 1 8.6358664594188888e+00 5.3456562155594129e+00 1.3508155124031726e+01 0 1 -3
265 1 7.5650417748232126e+00 7.2211979958018429e+00 1.7205476421985015e+01 -4 0 2
35 2 8.3180673318206253e+00 7.6045431408547444e+00 1.5489543334076091e+01 -2 -1 -4
452 2 5.2314813063480017e+00 7.2668257134070098e+00 1.3683735666990046e+01 -3 12 -2
34 1 8.7922109133543440e+00 7.7615986664251544e+00 1.4628059202395924e+01 -2 -1 -4
557 2 8.7435095436327774e+00 6.2833854233941056e+00 1.3912797019852237e+01 0 1 -3
558 2 8.9190947080013476e+00 4.7305739823927784e+00 1.4183852501533874e+01 0 1 -3
355 1 6.1536911429088033e+00 4.9408750168812441e+00 1.7540995346645662e+01 2 0 -7
506 2 9.7310740708540546e+00 5.8385228596199612e+00 1.7470214138045712e+01 -1 -1 4
430 1 1.2019962632880738e+01 4.5197553171186584e+00 1.4057932983711463e+01 -7 -5 3
424 1 9.2465367422404583e+00 4.6895852361187540e+00 1.6023505767602504e+01 3 -1 5
540 2 1.3213647213782549e+01 7.4194923822836074e+00 1.4690175787950047e+01 9 5 0
21 2 1.1522537184270446e+01 8.0334391626606454e+00 1.5690742068793313e+01 -1 -1 3
431 2 1.2072501453618941e+01 5.3221526498435461e+00 1.4633429029663620e+01 -7 -5 3
538 1 1.2586895270257573e+01 6.8527381498550222e+00 1.5228349567266179e+01 9 5 0
36 2 9.6159428766742252e+00 8.2789111991802393e+00 1.4931766401720086e+01 -2 -1 -4
539 2 1.2880272022730002e+01 6.9466161837053315e+00 1.6140419663210210e+01 9 5 0
79 1 1.5840189222240555e+01 6.0556433758796278e+00 1.7244216386962982e+01 -2 3 1
80 2 1.6663050065937046e+01 6.5938999920006180e+00 1.7220689051849305e+01 -2 3 1
81 2 1.5956518759046505e+01 5.2331173722060873e+00 1.6685295291032840e+01 -2 3 1
314 2 1.5879530225173664e+01 8.4465371560126883e+00 1.6148443980377174e+01 -2 2 -3
244 1 1.8815987627463162e+00 1.0767155792649033e+01 4.0718743256288104e+00 -2 -2 -1
428 2 3.4665074070501078e+00 1.0497064671743608e+01 3.3914405713668532e+00 4 1 -10
427 1 4.2976472270687101e+00 1.0040271562287066e+01 3.2035525862927998e+00 4 1 -10
245 2 1.4251724660847065e+00 1.0986879616066453e+01 3.2189481974451377e+00 -2 -2 -1
246 2 1.6185431126088579e+00 1.1594865265631185e+01 4.5481359533849020e+00 -2 -2 -1
143 2 1.2286547269569525e+00 1.0921424806322204e+01 9.5756156384645452e-01 -1 -2 2
142 1 7.0736660029451337e-01 1.1072748861236944e+01 1.7493796508730042e+00 -1 -2 2
522 2 8.8491062519774455e-01 9.3166246959465653e+00 4.4990485863268930e+00 5 1 3
32 2 3.6740152679502831e+00 1.2287880461427520e+01 1.0446286412782768e+00 -8 2 5
423 2 7.5603729219188818e+00 8.8536726464208630e+00 2.4753610173547935e+00 -2 5 4
429 2 4.8721858494905899e+00 1.0757053811485470e+01 3.5755183991118442e+00 4 1 -10
302 2 8.4781958783782230e+00 1.0730878563743817e+01 4.0261054240860199e+00 2 -4 4
301 1 8.5736037726141863e+00 1.1470136932760468e+01 4.7044914530955566e+00 2 -4 4
469 1 5.7790318513939720e+00 1.1929203988164403e+01 4.1728419206801046e+00 -5 0 -1
422 2 7.5223551385731513e+00 1.0343668956764569e+01 1.9384140617436418e+00 -2 5 4
249 2 6.8766968351058582e+00 1.2504492732041916e+01 1.3901730547196616e+00 -3 2 5
247 1 6.7275771905560413e+00 1.1596262405324014e+01 1.0097173480428636e+00 -3 2 5
470 2 6.7102504896279465e+00 1.2094088199416834e+01 4.4709340124389723e+00 -5 0 -1
421 1 7.9721518385850914e+00 9.7241966534117346e+00 2.5622158968800077e+00 -2 5 4
471 2 5.7178623634687034e+00 1.2509268964414327e+01 3.3983782645098510e+00 -5 0 -1
511 1 5.1637969509447661e+00 8.8186593678152896e+00 1.0303401567979953e+00 1 1 -6
513 2 4.8710839268017239e+00 9.4201210072219457e+00 1.7656965877285145e+00 1 1 -6
134 2 1.1346386641245370e+01 1.2053367381057733e+01 3.0075578044553626e+00 4 -5 -2
135 2 1.1074199705255753e+01 1.1513987368670573e+01 1.6210491664342535e+00 4 -5 -2
133 1 1.1384140370298548e+01 1.1207330275574476e+01 2.4979808534851218e+00 4 -5 -2
38 2 1.0975173874351858e+01 1.0169585381809092e+01 4.4446002933598789e+00 -6 -8 -2
402 2 9.8277422369349665e+00 9.6299297726490174e+00 1.7574046287474487e+00 -2 5 -3
404 2 1.3113751372406439e+01 1.1553312483780054e+01 1.7480884651431177e+00 2 6 0
400 1 1.0555816448503085e+01 9.0082312265352673e+00 1.4469759786740850e+00 -2 5 -3
368 2 1.5466459089924987e+01 9.1260874770094045e+00 2.6495918606069759e+00 -5 -1 -1
367 1 1.6044913321288753e+01 9.1087865679761304e+00 1.8136079785562413e+00 -5 -1 -1
259 1 1.4823743048720077e+01 1.2446293405703818e+01 3.7658450139886979e+00 -1 -2 2
144 2 1.7069244304576248e+01 1.0346773091538552e+01 1.7241910996479566e+00 -2 -2 2
405 2 1.4188648673421733e+01 1.2533969029258534e+01 2.1403153737777920e+00 2 6 0
403 1 1.3791013824481292e+01 1.2146034283148065e+01 1.3919124907292835e+00 2 6 0
260 2 1.5776389593348190e+01 1.2602115758837272e+01 3.7051313734084999e+00 -1 -2 2
56 2 1.3671401137538504e+01 9.5087126982976802e+00 3.3525183093239925e+00 -1 -2 1
55 1 1.4409197756713180e+01 9.9579487846917729e+00 3.8165462421974854e+00 -1 -2 1
261 2 1.4718035673972143e+01 1.1441627008079966e+01 3.7332709884488278e+00 -1 -2 2
369 2 1.5358409538379568e+01 9.2289737225409390e+00 1.1633215418456979e+00 -5 -1 -1
57 2 1.4428726833949575e+01 9.6986736809867846e+00 4.7699620289971953e+00 -1 -2 1
183 2 1.5581276321248487e+00 1.3114521454332030e+01 2.2963493209156773e+00 -9 -7 -1
181 1 2.3676315114817541e+00 1.3359066861158594e+01 1.8686439735779339e+00 -9 -7 -1
182 2 2.7240521158749775e+00 1.4081624218723389e+01 2.4415137963538638e+00 -9 -7 -1
82 1 3.2612550976299866e+00 1.5217557928501028e+01 3.6196812777124951e+00 1 -2 3
84 2 2.7601540391082109e+00 1.6089394256096647e+01 3.6698296210400532e+00 1 -2 3
83 2 3.5606582783271912e+00 1.5139456352696774e+01 4.5211579728817206e+00 1 -2 3
253 1 7.1054105235909795e+00 1.5813372731279500e+01 1.1949277338510009e+00 -6 1 -1
234 2 4.7665338288389156e+00 1.4414589137481128e+01 2.9010499262795646e+00 1 3 1
232 1 5.5597213535455223e+00 1.4003291889517925e+01 2.5133333150131580e+00 1 3 1
233 2 6.2193888763209868e+00 1.4453320603714253e+01 3.1297446981992163e+00 1 3 1
255 2 7.2236378312067071e+00 1.6374751362303819e+01 2.0562093606601910e+00 -6 1 -1
567 2 8.2667755047352678e+00 1.4774650605081879e+01 4.7473047834145445e+00 -4 5 -1
565 1 7.7131878174044033e+00 1.4558890314200081e+01 3.9346489451014475e+00 -4 5 -1
566 2 8.3929294879282423e+00 1.4238863291146272e+01 3.2992969276848960e+00 -4 5 -1
438 2 8.8545279461565620e+00 1.6866456184974190e+01 3.4357812552766576e+00 1 -3 -1
115 1 1.0923433708769238e+01 1.3134235536301789e+01 4.7574172137918112e+00 2 -5 1
437 2 1.0339409766861017e+01 1.6824391666748689e+01 3.8331071321504497e+00 1 -3 -1
319 1 1.2424872858551185e+01 1.4487612038949274e+01 8.7790870631901874e-01 -6 2 -1
320 2 1.1576497590974773e+01 1.4402798324301001e+01 1.2821571633628044e+00 -6 2 -1
571 1 1.0053594555439920e+01 1.4236709775177314e+01 2.3470516488211963e+00 -1 1 -3
573 2 1.0331761606057043e+01 1.3857513545155266e+01 3.2150012564813357e+00 -1 1 -3
572 2 9.9674247249035073e+00 1.5200919693664462e+01 2.5390280751243042e+00 -1 1 -3
321 2 1.2696213367075332e+01 1.3574663005543650e+01 9.4438048490689619e-01 -6 2 -1
436 1 9.7106482909134861e+00 1.6649267123398818e+01 3.0635239700547157e+00 1 -3 -1
100 1 1.7325307201168329e+01 1.3474535989234285e+01 3.9440664964551462e+00 -3 1 6
378 2 1.5095460548764255e+01 1.5926190828198045e+01 8.4573629334155964e-01 -5 -4 -2
444 2 1.7339821726525816e+01 1.6684937671425846e+01 3.4212963479602263e+00 -6 -2 -3
376 1 1.4503880282067133e+01 1.5944002001213139e+01 1.6468111292731900e+00 -5 -4 -2