LAMMPS data file via write_data, version 15 Apr 2020, timestep = 1148000

1920 atoms
2 atom types

6.3847977485664842e-04 2.4723766520224288e+01 xlo xhi
7.5073200543229746e-04 2.4723654267986504e+01 ylo yhi
-3.6658071561292971e-02 2.2829030071565697e+01 zlo zhi
9.5509320843480180e-03 -5.0334730581535383e-02 -6.9303279035586168e-02 xy xz yz

Masses

1 16
2 2

Atoms # atomic

1 1 4.6279202937270414e+00 1.3053805377556362e+00 4.0842953207795825e+00 0 0 0
2 2 5.4576394970563369e+00 1.1655978518477570e+00 3.5758911691626039e+00 0 0 0
3 2 4.6779961083184292e+00 6.7560938343309962e-01 4.8965505301869898e+00 0 0 0
4 1 2.8766961112906397e+00 1.6342390182944628e+00 2.1416820290370526e+00 0 0 0
654 2 8.0409796871234835e+00 1.1686690617904807e+01 6.4056997802266542e+00 0 0 0
6 2 3.3494435246142054e+00 1.4437459174000893e+00 2.9712682884833828e+00 0 0 0
7 1 6.0981306211287434e+00 4.7001661225430267e+00 3.3882827330765029e+00 0 0 0
8 2 5.1415765280033581e+00 4.5680582068291198e+00 3.4232455648664266e+00 0 0 0
9 2 6.4228759539578935e+00 4.0176128241009668e+00 4.0239563759283659e+00 0 0 0
10 1 3.2026926901329658e+00 4.6361788115938465e+00 3.3458235222324282e+00 0 0 0
11 2 2.9965203770602611e+00 3.7537258144978125e+00 3.7380735810506205e+00 0 0 0
12 2 2.8601888422092574e+00 5.2037444362935377e+00 4.0112261955444977e+00 0 0 0
13 1 1.5751885769331049e+00 2.8309020151378741e+00 4.7560902157102083e+00 0 0 0
14 2 1.4693221111031713e+00 1.8159522188285548e+00 4.8878587544493914e+00 0 0 0
15 2 1.5950389024800988e+00 3.1592403829632758e+00 5.6649657949240764e+00 0 0 0
1597 1 1.2085656600309509e+01 1.0916540939974642e+01 2.0818764197181103e+01 0 0 0
17 2 1.0725515965713261e+00 1.3329343253979915e+00 2.1912653926596009e+00 0 0 0
19 1 4.9499212669501755e+00 3.0837798678661303e+00 7.5209017366227926e-01 0 0 0
20 2 4.1216404335280572e+00 2.7691942896245876e+00 1.1626371183959345e+00 0 0 0
21 2 4.8273621193723875e+00 4.0532121347417940e+00 6.6322969844244051e-01 0 0 0
22 1 1.3751909866774203e+00 4.5808507689965632e+00 1.4721494748242900e+00 0 0 0
23 2 2.2663623769733077e+00 4.6431201331718963e+00 1.9046249187054500e+00 0 0 0
24 2 1.4252485510274406e+00 3.8607564956624025e+00 8.2615094781206833e-01 0 0 0
25 1 4.6675028791417175e+00 6.0247677621274827e+00 6.2339843049656118e-01 0 0 0
26 2 3.9394932563048246e+00 6.2407769386325462e+00 1.2397187333374504e+00 0 0 0
27 2 4.2708658206574528e+00 6.2537292720603377e+00 2.2644381941684919e+01 0 0 0
1856 2 1.0059627480650635e+01 3.5369554471011211e-01 1.8236727256255449e+01 0 0 0
31 1 1.0779707554858865e+01 1.2915129196972996e+00 4.3868237264255825e+00 0 0 0
32 2 1.0758592242709025e+01 2.0312848378468353e+00 5.0223045180106460e+00 0 0 0
1585 1 4.9659830502810394e+00 1.2188736237062361e+01 1.8037937797815005e+01 0 0 0
34 1 9.1373907161312236e+00 1.4186864684666900e+00 2.2289007264144924e+00 0 0 0
1539 2 4.0293269239205304e-01 3.8929900776862669e+00 2.1329933328433839e+01 0 0 0
36 2 9.4662497775314272e+00 2.2318015232839250e+00 1.8232195179843609e+00 0 0 0
136 1 1.9492795912581215e-01 7.4728926993070495e+00 2.2364531849429965e+00 0 0 0
39 2 1.1294755547132189e+01 4.8117924841159958e+00 3.5023928729892675e+00 0 0 0
40 1 9.4835993043166074e+00 4.5112295307878796e+00 3.4127524157432818e+00 0 0 0
41 2 9.0406646351444113e+00 4.6258996287031078e+00 2.5471108209500910e+00 0 0 0
42 2 9.0509391389657150e+00 3.8585991853604948e+00 3.9773506633928886e+00 0 0 0
43 1 7.4755914085730080e+00 2.9981571216019463e+00 5.1254902962105682e+00 0 0 0
44 2 7.4562356961761829e+00 3.3892381770543252e+00 6.0518876519152007e+00 0 0 0
45 2 7.3905090468738734e+00 2.0273527963039255e+00 5.2757576981948793e+00 0 0 0
46 1 6.4512051538239144e+00 1.3595165001161158e+00 1.9484151463368153e+00 0 0 0
47 2 7.3933745236274859e+00 1.3405312593224574e+00 2.1871611892795322e+00 0 0 0
48 2 6.1085613578379521e+00 2.2430213945009143e+00 1.5716290576236567e+00 0 0 0
49 1 1.0948162805578436e+01 3.3798832779779726e+00 7.1884309573238614e-01 0 0 0
50 2 1.1366126906870040e+01 2.7716191124595642e+00 1.3514524920703268e+00 0 0 0
51 2 1.0789993863598477e+01 2.7751266706525559e+00 2.2737608053906243e+01 0 0 0
52 1 7.8596404874430679e+00 4.8642691058258123e+00 1.4067101924251266e+00 0 0 0
53 2 7.8619916941432315e+00 4.0387389532813724e+00 8.7011793547712990e-01 0 0 0
54 2 6.9962894698058902e+00 4.7114742354460937e+00 1.9235967903075484e+00 0 0 0
55 1 1.0946183902840556e+01 6.1600628948442013e+00 6.0960064640430012e-01 0 0 0
56 2 1.0174255601645470e+01 6.4343868854032396e+00 1.1928465718860082e+00 0 0 0
57 2 1.1031073326836450e+01 5.1410994516751849e+00 5.7910974583447672e-01 0 0 0
300 2 7.1322134856739892e+00 1.2204979491534788e+01 4.5601882528135436e+00 0 0 0
218 2 5.5083220998655580e-01 1.0640447686315257e+01 2.8601893608684068e+00 0 0 0
1608 2 7.3634286256845307e+00 7.8000863740009807e+00 1.9340726430431040e+01 0 0 0
531 2 1.0735120416934238e+01 4.0916170116336064e+00 6.2810492568431524e+00 0 0 0
121 1 4.7269936126638292e+00 7.6203778873130519e+00 4.2992442505010002e+00 0 0 0
122 2 5.5702632332610493e+00 7.5813387093982447e+00 3.7583522680374277e+00 0 0 0
123 2 3.9871168512218862e+00 7.5636523229624073e+00 3.6165166628690018e+00 0 0 0
124 1 2.9768314054610450e+00 7.6773709611753533e+00 2.3649067902647660e+00 0 0 0
125 2 3.2818067319325142e+00 8.4646948078742845e+00 1.8013287859709475e+00 0 0 0
126 2 1.9635199174869036e+00 7.6837161658852180e+00 2.2410288189517318e+00 0 0 0
127 1 6.1042668042110293e+00 1.0733298125994034e+01 3.3980489942195611e+00 0 0 0
128 2 6.4611357339267110e+00 1.0053877595333933e+01 3.9974106603903650e+00 0 0 0
1456 1 7.0061657640044364e-02 1.7421121612573036e+00 1.8976049289448220e+01 0 0 0
130 1 3.4559443157838512e+00 1.0907833381158319e+01 3.8521524964053540e+00 0 0 0
131 2 3.0017564342001197e+00 1.0215576808644675e+01 4.3085532734125476e+00 0 0 0
132 2 3.1716989820772294e+00 1.0872964698800242e+01 2.9374800682321891e+00 0 0 0
133 1 1.7899049676815639e+00 9.1538108735528887e+00 5.0930620918464369e+00 0 0 0
134 2 1.7040587468735509e+00 9.7010533031864057e+00 5.8744292035211423e+00 0 0 0
135 2 9.3351994637382629e-01 9.3311582162752931e+00 4.5648220591575397e+00 0 0 0
1518 2 1.2096669715216384e+01 2.2692957996928076e+00 1.9054593314118229e+01 0 0 0
139 1 4.5805822741078375e+00 9.4515974848408977e+00 8.3703223462474408e-01 0 0 0
140 2 4.2612610351895572e+00 1.0402500457320182e+01 7.4736047888045598e-01 0 0 0
141 2 5.3444278349401513e+00 9.3905352298847014e+00 1.4512138758963540e+00 0 0 0
142 1 1.8545121800882953e+00 1.0828283203754655e+01 1.3865897981593402e+00 0 0 0
143 2 1.6787385826329673e+00 9.9945704276775906e+00 8.4910089769040253e-01 0 0 0
144 2 1.4365144056381030e+00 1.1537816611576005e+01 8.4332813889325786e-01 0 0 0
76 1 1.2352068719755152e+01 1.4548392440692757e+00 2.1793495880199116e+00 0 0 0
148 1 1.5727894208624669e+00 6.3743945892963119e+00 5.0691015632381404e+00 0 0 0
749 2 1.3069237128065097e+00 1.2125848143855068e+01 1.1370985753755074e+01 0 0 0
150 2 1.6593065130459590e+00 7.3270825723364705e+00 5.1350055513767154e+00 0 0 0
151 1 1.0954360118482647e+01 7.4486549024513025e+00 4.3627283298619384e+00 0 0 0
129 2 5.1260402734856356e+00 1.0784749740594760e+01 3.5056492852016419e+00 0 0 0
153 2 1.0981218001492778e+01 8.3433902521014041e+00 4.6264349924886901e+00 0 0 0
154 1 9.1421600913946257e+00 7.7358107279077322e+00 2.3163297960852196e+00 0 0 0
155 2 9.4964890478844417e+00 8.5810841184260145e+00 1.8861871871206008e+00 0 0 0
156 2 9.7435883668614380e+00 7.6474000962160211e+00 3.0762749307230881e+00 0 0 0
175 1 1.1180377453512781e+01 1.1996259880707033e+01 5.8639339821105352e-01 0 0 0
158 2 1.1168045429940323e+01 1.0529635114869674e+01 3.5744442890784289e+00 0 0 0
160 1 9.5166582181149408e+00 1.0752237930030695e+01 3.8337982188646853e+00 0 0 0
161 2 9.0766521895865999e+00 1.0688155657860616e+01 2.9581755756724069e+00 0 0 0
579 2 1.6067425378077302e-01 4.3780884483818578e+00 8.4285312991707713e+00 0 0 0
163 1 7.6805233796613228e+00 9.1194310578351647e+00 5.0153868652552482e+00 0 0 0
164 2 7.5613353451668406e+00 8.1679586500846568e+00 4.7895141052290118e+00 0 0 0
165 2 8.5843137341116247e+00 9.3893899238705352e+00 4.6684942281458852e+00 0 0 0
166 1 6.3647776380279772e+00 7.6354506220314526e+00 2.2299330963216519e+00 0 0 0
167 2 5.8445692464283976e+00 7.1909303434837035e+00 1.5256937517473856e+00 0 0 0
168 2 7.3840825932211862e+00 7.4332248197609214e+00 2.0927571021058999e+00 0 0 0
169 1 1.0918296615923172e+01 9.3183368110635723e+00 8.4320605301056384e-01 0 0 0
170 2 1.0754475199933253e+01 1.0207293186435665e+01 5.8031135464940276e-01 0 0 0
171 2 1.0829393005704471e+01 8.7554833724356396e+00 -3.0872802193232171e-03 0 0 1
172 1 7.9472456358036849e+00 1.0788771120798849e+01 1.5006377931959261e+00 0 0 0
1468 1 1.5387714967405799e+00 2.9352744505729467e-01 2.2411712204702084e+01 0 0 0
174 2 8.0426680724035258e+00 9.9888224072441005e+00 9.1198341078432543e-01 0 0 0
997 1 1.2098333135095560e+01 4.5117911954057952e+00 1.4842837949808231e+01 0 0 0
178 1 7.9055302251436341e+00 6.3710552182437317e+00 4.7670858321819534e+00 0 0 0
179 2 7.2544093280856305e+00 5.9263378472946373e+00 4.1892237945784796e+00 0 0 0
180 2 8.7305999635909011e+00 6.0222972466920472e+00 4.4491392102795180e+00 0 0 0
625 1 4.6874510925798987e+00 1.1928748000446411e+01 6.4234991657691012e+00 0 0 0
517 1 1.2137502083829895e+01 4.2832809833592176e+00 9.2336853329020254e+00 0 0 0
159 2 1.2320960459494463e+01 1.0878717723671040e+01 2.4948577135166872e+00 0 0 0
1589 2 1.1063942436759482e+00 5.7553149756387043e+00 2.1452599659845568e+01 0 0 0
1619 2 7.9339476995620117e+00 5.8983270934873211e+00 2.2654217612462475e+01 0 0 0
495 2 7.5380637202042133e-01 3.2375009019360474e+00 1.0108337684908662e+01 0 0 0
1618 1 8.1468880478616157e+00 6.3522607148468619e+00 2.1825908055186503e+01 0 0 0
16 1 8.5151638933249840e-02 1.4207505927411104e+00 2.1694378036564603e+00 0 0 0
417 2 9.9538735921077244e+00 9.2429338879469844e-02 9.5039071473122327e-01 0 0 0
481 1 4.5838543054790364e+00 1.2852578458862536e+00 9.9791848574440518e+00 0 0 0
482 2 4.8012885688913212e+00 6.0203047076238292e-01 1.0641429450609490e+01 0 0 0
483 2 5.2712914719941697e+00 1.3162216061659591e+00 9.3266664018210523e+00 0 0 0
484 1 2.7036684836802296e+00 1.3833330732767433e+00 7.7562579100997997e+00 0 0 0
485 2 3.0805267598162120e+00 1.3648837491371606e+00 8.6325322461015634e+00 0 0 0
486 2 1.7813952204854435e+00 1.5405047437961761e+00 7.8862159503982925e+00 0 0 0
487 1 5.7620757951724864e+00 4.7495019737254367e+00 9.2109461979456313e+00 0 0 0
488 2 4.7817299587904856e+00 4.7663296668764010e+00 9.3611564281514656e+00 0 0 0
489 2 6.0015029201495942e+00 4.0293969133613876e+00 9.8449038142345593e+00 0 0 0
490 1 2.9996031437424007e+00 4.4283300465454714e+00 9.2702208841891522e+00 0 0 0
491 2 2.8802202180861829e+00 3.6336635695842530e+00 9.8089346931519312e+00 0 0 0
492 2 2.5384437592970723e+00 5.1570992482375413e+00 9.7558745781020413e+00 0 0 0
493 1 1.2379499990176697e+00 2.6791268462505116e+00 1.0736539621503990e+01 0 0 0
494 2 1.1787502150780433e+00 3.1994554441859022e+00 1.1530938514310558e+01 0 0 0
1605 2 7.1467054517818678e+00 9.5561613177101172e+00 2.1663655723145517e+01 0 0 0
1613 2 7.6497586354935665e+00 1.1551132689555773e+01 1.8210104831896743e+01 0 0 0
499 1 4.5151654922780038e+00 3.0757485263526116e+00 6.5742573793132753e+00 0 0 0
500 2 3.7516468245610999e+00 2.6326179017711269e+00 6.9467107087486522e+00 0 0 0
501 2 4.5334309341803030e+00 2.6820486021314980e+00 5.6938492544205337e+00 0 0 0
502 1 1.4310818751952636e+00 4.4909829272337793e+00 7.1603766361603105e+00 0 0 0
503 2 2.0714300461787145e+00 4.6616402301609714e+00 7.8804727571164817e+00 0 0 0
504 2 1.5742362111837231e+00 5.1606094117821373e+00 6.5140229337076851e+00 0 0 0
505 1 4.5840250050564375e+00 5.9650077905982171e+00 6.5806271699970331e+00 0 0 0
506 2 4.4329593198236479e+00 4.9893770473453181e+00 6.5560518641596204e+00 0 0 0
507 2 4.5496506409337183e+00 6.3353991960596368e+00 5.6488304222924173e+00 0 0 0
5 2 3.2354374286496084e+00 1.0026352962033143e+00 1.4794097784200042e+00 0 0 0
509 2 1.1755554340733367e+00 8.6370668993504851e-01 1.0739274451251092e+01 0 0 0
511 1 1.0658313363952162e+01 1.4302766909803999e+00 9.9623024124352497e+00 0 0 0
512 2 1.0654931425464463e+01 6.0035358476550604e-01 1.0518242569929301e+01 0 0 0
513 2 9.9465728016853490e+00 1.3160787872583233e+00 9.2927377654993606e+00 0 0 0
514 1 8.9118009073840625e+00 1.4688584356358620e+00 7.8561137804046712e+00 0 0 0
515 2 7.9712283190196063e+00 1.2864678995778822e+00 7.9832315261063265e+00 0 0 0
1571 2 2.9071958053237807e+00 1.1840020691494312e+01 2.1418047886627782e+01 0 0 0
699 2 1.8674593622546215e-01 1.1654217243934291e+01 9.5856289241726920e+00 0 0 0
520 1 9.3529502545208949e+00 4.4104106120933944e+00 9.4048486882116844e+00 0 0 0
521 2 1.0326517694953520e+01 4.5598329688081032e+00 9.2067012947985258e+00 0 0 0
522 2 8.8929452252455192e+00 4.2528836206643872e+00 8.5946830384706683e+00 0 0 0
523 1 7.3944457767442540e+00 2.8119540903739204e+00 1.0835244599098218e+01 0 0 0
524 2 7.4467535525088913e+00 1.9089402871258898e+00 1.1145208313741094e+01 0 0 0
525 2 8.1781038405492783e+00 3.0375651071167677e+00 1.0286620539955376e+01 0 0 0
526 1 6.1445758617573327e+00 1.4993814676074217e+00 7.8617576627639698e+00 0 0 0
527 2 5.6457384113216893e+00 8.1861185135420156e-01 7.3765221472627669e+00 0 0 0
1826 2 5.3181549428439228e+00 1.5842632119184494e-01 1.8239283555597275e+01 0 0 0
529 1 1.0675003916519728e+01 3.0974240615432520e+00 6.4271416043262359e+00 0 0 0
530 2 9.8755864098483688e+00 2.7220672489361837e+00 6.7528983927966459e+00 0 0 0
678 2 1.2160968372646593e+01 6.8382532502158409e+00 7.3185937720494056e+00 0 0 0
532 1 7.5893965829482601e+00 4.5950656724277987e+00 7.3138564381873676e+00 0 0 0
533 2 7.6711586180162303e+00 5.1864061098740297e+00 6.5945494380122600e+00 0 0 0
534 2 6.8189485136425647e+00 4.9541510713448051e+00 7.8573254171814186e+00 0 0 0
535 1 1.0846415820885207e+01 5.8459473405322600e+00 6.3691725836918494e+00 0 0 0
536 2 1.0176311755772709e+01 6.1832846838206796e+00 6.9497857060216948e+00 0 0 0
1464 2 9.2356054066549054e-01 4.4972666371829817e+00 1.9125143191587391e+01 0 0 0
1607 2 5.9358600537612611e+00 7.8114693734745799e+00 2.0117895550242011e+01 0 0 0
614 2 5.1594465328922412e-01 9.4200063536925676e+00 1.0413022398708447e+01 0 0 0
1472 2 1.1451474047758417e+01 1.3371790784385369e+00 2.0652858146256428e+01 0 0 0
1229 2 1.7468310828341982e+00 1.1792298124017668e+01 1.7545322723715742e+01 0 0 0
1612 1 7.6793058696317500e+00 1.0735876067736314e+01 1.8763953079629722e+01 0 0 0
601 1 4.3709641792127938e+00 7.5995328992359683e+00 9.9384188448699877e+00 0 0 0
602 2 5.0521880315904353e+00 7.7864932968910150e+00 9.2286181573240729e+00 0 0 0
603 2 4.1880557571633563e+00 8.4481860234352375e+00 1.0461190748314626e+01 0 0 0
604 1 2.6548767750839857e+00 7.6234674224349179e+00 8.0424810744833870e+00 0 0 0
605 2 3.3904211791737917e+00 7.5307741066266995e+00 8.6363104994244217e+00 0 0 0
606 2 2.8474680500926031e+00 7.0844879770431195e+00 7.2513270997979804e+00 0 0 0
607 1 6.0419508579573131e+00 1.0892051204974441e+01 9.0859823437990261e+00 0 0 0
608 2 6.5625596415897798e+00 1.0898282568547407e+01 8.2227798412122741e+00 0 0 0
609 2 6.5131537989750381e+00 1.0198081200033172e+01 9.6494212259222891e+00 0 0 0
610 1 3.2491659915543254e+00 1.0584537449095800e+01 9.3210060313452647e+00 0 0 0
611 2 2.8023273789985752e+00 1.0724938926931248e+01 8.4872880790884295e+00 0 0 0
612 2 4.1606395349896861e+00 1.0842476538230038e+01 9.2875265233612208e+00 0 0 0
613 1 1.3340364951901329e+00 8.9884628823082036e+00 1.0698845053564206e+01 0 0 0
1036 1 1.2243780606141884e+01 1.5130849960619028e+00 1.3508559600469718e+01 0 0 0
615 2 2.0880376915457237e+00 9.3121068950106594e+00 1.0224046830153979e+01 0 0 0
1092 2 2.8300157958205858e+00 1.1060544403889425e+01 1.4223177433688830e+01 0 0 0
618 2 9.4523487126801320e-01 7.9088469549879159e+00 7.9576168337397144e+00 0 0 0
619 1 4.5527468560105326e+00 9.2879429290839006e+00 6.5265664969385577e+00 0 0 0
620 2 4.6450823322638186e+00 8.8408321171675119e+00 5.6198501478863969e+00 0 0 0
621 2 3.7349395113809978e+00 8.8537307977437383e+00 6.8972886800496482e+00 0 0 0
622 1 1.5939261679928938e+00 1.0909624645960657e+01 7.1636673468456644e+00 0 0 0
623 2 7.6334726198418312e-01 1.0775215157925757e+01 7.6739058134625564e+00 0 0 0
624 2 1.3782783440957720e+00 1.1590830149862125e+01 6.5428216622026634e+00 0 0 0
677 2 1.2051682082037148e+01 8.4209021821462855e+00 7.2000918481499898e+00 0 0 0
626 2 4.5331377015053489e+00 1.0983799723496366e+01 6.4392029627804632e+00 0 0 0
628 1 1.2522563128242987e+00 6.2221409034247595e+00 1.0626136384637149e+01 0 0 0
629 2 1.1439491792930632e+00 5.8356021766777131e+00 1.1528682934218061e+01 0 0 0
630 2 1.1263670617192512e+00 7.2050449857082137e+00 1.0661599438866460e+01 0 0 0
631 1 1.0745446071902309e+01 7.4899620647088003e+00 9.8136442762906562e+00 0 0 0
632 2 1.0593172074756405e+01 6.7690051632594548e+00 1.0457541409351110e+01 0 0 0
633 2 1.1620114830356504e+01 7.4206369516977038e+00 9.3535311071704896e+00 0 0 0
634 1 8.9667003945305694e+00 7.8649877714243015e+00 7.8063811871904347e+00 0 0 0
635 2 9.5824409976498561e+00 7.5919177616056297e+00 8.5499452686046382e+00 0 0 0
636 2 8.0348380682050990e+00 7.9656868085977397e+00 8.1138423712984462e+00 0 0 0
1442 2 4.5480118670809606e+00 5.8822099223733693e-01 2.1509011333564771e+01 0 0 0
639 2 1.1233406231333877e+01 1.1135451510977360e+01 9.0689132582399470e+00 0 0 0
640 1 9.4224941504311879e+00 1.1134181126252495e+01 9.1320262964634686e+00 0 0 0
641 2 8.8400511907713799e+00 1.1188757124228172e+01 8.2772052503170368e+00 0 0 0
642 2 9.3061440864073663e+00 1.0246288056265438e+01 9.4249540055338734e+00 0 0 0
643 1 7.6920922834579430e+00 9.2288166610444602e+00 1.0575892262570315e+01 0 0 0
644 2 7.7862763052353650e+00 8.2467101513417091e+00 1.0592041344124940e+01 0 0 0
645 2 7.7520690044819887e+00 9.5610070554749864e+00 1.1473443857687817e+01 0 0 0
646 1 6.1385207609736723e+00 7.9843685870750107e+00 8.0952570774694657e+00 0 0 0
647 2 5.8475291970018866e+00 7.2016112178257607e+00 7.6259409793134578e+00 0 0 0
648 2 5.7486752174386213e+00 8.7634914701714965e+00 7.6610809285699890e+00 0 0 0
649 1 1.0493796902476763e+01 9.3849117641137969e+00 6.2867935180791692e+00 0 0 0
650 2 1.0417861533567841e+01 1.0337530763777503e+01 6.4065062385454343e+00 0 0 0
651 2 9.8908178955712973e+00 8.9678486636154169e+00 6.9486229315723733e+00 0 0 0
652 1 7.7920214293948780e+00 1.0915410998636293e+01 6.9919503965153993e+00 0 0 0
653 2 7.7956414612971301e+00 1.0117122256597268e+01 6.3957793153064015e+00 0 0 0
37 1 1.2242673975487600e+01 4.5692728936482938e+00 3.5292812677865610e+00 0 0 0
1089 2 4.9405432589060263e+00 1.0894234633346251e+01 1.4831322890814661e+01 0 0 0
658 1 7.6033424672223155e+00 6.2944468711149009e+00 1.0557289699483400e+01 0 0 0
659 2 6.8667571455153427e+00 6.1763528490294286e+00 9.9582577191775599e+00 0 0 0
660 2 8.2683945285167386e+00 5.7311991290805890e+00 1.0148023291248006e+01 0 0 0
1610 2 1.0668050372994719e+01 9.3694085057129080e+00 1.6978464551901709e+01 0 0 0
1604 2 8.6553344531893952e+00 9.2951149413906275e+00 2.1868415663016165e+01 0 0 0
1710 2 6.1159307278770991e-01 1.1921503411674777e+01 2.1935942182692841e+01 0 0 0
1230 2 2.5176236985003659e+00 1.1938392284732661e+01 1.6228224328368114e+01 0 0 0
1614 2 8.4095989076210707e+00 1.0812915131717940e+01 1.9452545455726572e+01 0 0 0
1611 2 1.1500292926394556e+01 9.0923593105611058e+00 1.8361955138475942e+01 0 0 0
556 1 1.2282337727012308e+01 1.5633031925613412e+00 7.8312325178788971e+00 0 0 0
1616 2 1.0626104558323819e+01 1.1417812969499328e+01 1.7971283325229763e+01 0 0 0
1133 2 7.8110279419475166e+00 1.1589466212610752e+01 1.2201315033142585e+01 0 0 0
1177 1 -1.9523098209672341e-02 1.0473349522627743e+01 1.4975320452730541e+01 1 0 0
961 1 4.3856596828342296e+00 1.5005775575579150e+00 1.5511083934811419e+01 0 0 0
962 2 4.4392063115859495e+00 2.2744091484641520e+00 1.6104127038266000e+01 0 0 0
1135 1 1.0878027566648164e+01 1.2180048586119616e+01 1.1927685765242254e+01 0 0 0
964 1 2.7539565710868565e+00 1.4611510949662923e+00 1.3427300925063715e+01 0 0 0
965 2 3.3135112854314728e+00 1.4865371079272633e+00 1.4286844361232507e+01 0 0 0
966 2 3.2676914466976994e+00 2.0106504564778409e+00 1.2782274321443719e+01 0 0 0
967 1 5.9116787335889924e+00 4.4255443357405131e+00 1.5003024318756143e+01 0 0 0
968 2 6.2667960117586201e+00 5.3188142300600454e+00 1.5198040492780519e+01 0 0 0
969 2 6.1749909326583561e+00 4.3374191566558347e+00 1.4074461510774865e+01 0 0 0
970 1 3.1835259516009264e+00 4.6206622730369444e+00 1.4778143102738746e+01 0 0 0
971 2 4.1479154335102386e+00 4.5907683064556206e+00 1.4906706787057956e+01 0 0 0
972 2 2.7955339925214773e+00 5.2528028665520914e+00 1.5421499419714802e+01 0 0 0
973 1 1.5429761516682756e+00 3.0052850879014348e+00 1.6344989270381355e+01 0 0 0
974 2 2.1255059304932717e+00 3.5176699951316177e+00 1.5730661075199555e+01 0 0 0
975 2 1.6552170426901944e+00 3.5330457886935829e+00 1.7182405718770305e+01 0 0 0
1376 2 1.1356537118804244e+01 1.6403106974632248e-01 1.2717578452398365e+01 0 0 0
977 2 1.0187982053221620e+00 1.5253339149194076e+00 1.3414865541445987e+01 0 0 0
979 1 4.4732810561588590e+00 3.2908555150814247e+00 1.1865371047224361e+01 0 0 0
980 2 4.5389673868691380e+00 2.7547887751082718e+00 1.1008842227890103e+01 0 0 0
981 2 5.3417308286761580e+00 3.0466397059720731e+00 1.2343696131415891e+01 0 0 0
982 1 1.3278778475277309e+00 4.6471753803926727e+00 1.2696594542245828e+01 0 0 0
983 2 2.1694226552904947e+00 4.7276943372637099e+00 1.3170218055805098e+01 0 0 0
984 2 6.5885241293480235e-01 4.6628863723459473e+00 1.3413682613166129e+01 0 0 0
985 1 4.3174904535678538e+00 6.0075587216818773e+00 1.2048335945460289e+01 0 0 0
986 2 4.2756989585000014e+00 6.3855539083703636e+00 1.1158131789442029e+01 0 0 0
987 2 4.3780472329468161e+00 5.0168222070002626e+00 1.2025689827048604e+01 0 0 0
58 1 7.3482883618827755e+00 3.4066348597727142e-01 5.2534370682378286e+00 0 0 0
989 2 1.4691833108836860e+00 1.1107816801542931e+00 1.6530765362339423e+01 0 0 0
991 1 1.0801380614027686e+01 1.3951603895954703e+00 1.5688223529450967e+01 0 0 0
992 2 1.0946792491498503e+01 8.8246492228804962e-01 1.6500496509625485e+01 0 0 0
993 2 1.0006387350593553e+01 1.2237031779250875e+00 1.5237016676181154e+01 0 0 0
994 1 8.8880139366707205e+00 1.5286070764283213e+00 1.3185428940823387e+01 0 0 0
995 2 9.2915277066033095e+00 6.9941264764610311e-01 1.2882200724213734e+01 0 0 0
996 2 9.5060650443474284e+00 2.1619596469372904e+00 1.2764461693181865e+01 0 0 0
1038 2 1.1874539341302190e+01 1.5424556788874821e+00 1.4440367527797740e+01 0 0 0
998 2 1.1135350045766577e+01 4.5216283477987629e+00 1.5029786055506797e+01 0 0 0
1000 1 9.3365890468914738e+00 4.5045974267298412e+00 1.5080449635046120e+01 0 0 0
1001 2 8.8694084892946741e+00 3.7587928071787844e+00 1.5595583586033582e+01 0 0 0
1002 2 8.8384233056987913e+00 4.5201289012203896e+00 1.4217860769918474e+01 0 0 0
1003 1 7.7509989284443934e+00 2.9214825393316124e+00 1.6542878394605722e+01 0 0 0
1004 2 7.0211774385619172e+00 3.3989102085365293e+00 1.6168307995555509e+01 0 0 0
1005 2 7.9418024877646207e+00 3.5203079790484457e+00 1.7314222422429914e+01 0 0 0
1006 1 6.2103376690696797e+00 1.8114068635597702e+00 1.3285163317790177e+01 0 0 0
1007 2 5.8746935856337750e+00 1.8640340246905585e+00 1.4251474450661172e+01 0 0 0
1008 2 7.1705683833779164e+00 1.7924119082339196e+00 1.3438330229137504e+01 0 0 0
1009 1 1.0768143706664999e+01 3.2474692740995126e+00 1.1936307892697329e+01 0 0 0
1010 2 1.1570236680148216e+01 2.8616857046120834e+00 1.2380665864458464e+01 0 0 0
1011 2 1.0800169669294682e+01 2.8253171460905122e+00 1.1006343570149420e+01 0 0 0
1012 1 7.8459748374590710e+00 4.6010305732190222e+00 1.2804878386235119e+01 0 0 0
1013 2 7.7508337342396976e+00 3.9027990189876669e+00 1.2168666735102185e+01 0 0 0
1014 2 7.9358479709189682e+00 5.3715679205976805e+00 1.2227058518457499e+01 0 0 0
1015 1 1.0367550212327306e+01 5.9528931218916821e+00 1.1983121803219317e+01 0 0 0
1016 2 1.0324958512439142e+01 4.9236704135743015e+00 1.2027764388010553e+01 0 0 0
1017 2 1.1209824776502950e+01 6.1593030333177694e+00 1.2437508817918868e+01 0 0 0
35 2 9.6037453059050666e+00 1.4319909554874333e+00 3.1021706898518393e+00 0 0 0
1019 2 7.7177141697446316e+00 1.2684261370691303e+00 1.6342633855718880e+01 0 0 0
1109 2 8.3620703634580917e-01 6.1022021047015382e+00 1.5649803709761692e+01 0 0 0
1602 2 9.0670918576504036e+00 1.1288963268112443e+01 2.1238288944142376e+01 0 0 0
1081 1 4.7310437149723965e+00 8.0977264978642935e+00 1.5672836928927607e+01 0 0 0
1082 2 5.4251837372548950e+00 7.7954454225647378e+00 1.5020510242191756e+01 0 0 0
1083 2 4.5615573487308385e+00 7.3282069205295262e+00 1.6185315066807441e+01 0 0 0
1084 1 2.8430534978534374e+00 7.9590893940279903e+00 1.3568209302890065e+01 0 0 0
1085 2 3.3088388431552800e+00 8.0874609585275419e+00 1.4405463605387478e+01 0 0 0
1086 2 3.1906723650166304e+00 7.1561220227757749e+00 1.3091485083405679e+01 0 0 0
1087 1 5.9393231856797293e+00 1.0986411130626978e+01 1.4844113760693443e+01 0 0 0
1088 2 6.2506226348266951e+00 1.0264000716003773e+01 1.5381699387483753e+01 0 0 0
637 1 1.2170485003399989e+01 1.0855452990310678e+01 9.3070257974923809e+00 0 0 0
1090 1 3.3669605265667406e+00 1.0984171879233685e+01 1.5054533711757516e+01 0 0 0
1091 2 2.9387126576517715e+00 1.0195981385241845e+01 1.5470033583967421e+01 0 0 0
1158 2 1.2217003418342181e+01 8.1386370666517500e+00 1.2643937075089012e+01 0 0 0
1093 1 1.9108517703146961e+00 9.0465140942305897e+00 1.6346216225950563e+01 0 0 0
1094 2 1.7691491579298098e+00 8.0634585737194087e+00 1.6340595543204849e+01 0 0 0
1095 2 1.0519167961400824e+00 9.3725840464485959e+00 1.6067959898653214e+01 0 0 0
1096 1 6.8064087929094880e-02 7.7713495122857212e+00 1.3414405751336096e+01 0 0 0
1097 2 1.0928581261186585e+00 7.7196590276722734e+00 1.3468700664317412e+01 0 0 0
1099 1 4.4548384528964160e+00 9.3547088134414249e+00 1.1892541778237002e+01 0 0 0
1100 2 3.8293631159044015e+00 8.8662364099090620e+00 1.2403459336560676e+01 0 0 0
1101 2 4.4486622826744240e+00 1.0272763674088049e+01 1.2267653736110450e+01 0 0 0
1102 1 1.6360345039792081e+00 1.0939964770417291e+01 1.2785879276047519e+01 0 0 0
1103 2 1.5441700624710966e+00 1.0150165002444520e+01 1.2205202419341029e+01 0 0 0
1104 2 8.0337588612572952e-01 1.0814102729235575e+01 1.3309621326199865e+01 0 0 0
28 1 1.2507958098089651e+00 2.5506706553496777e-01 4.9717493466127944e+00 0 0 0
1108 1 1.6346853363687570e+00 6.2607000155616426e+00 1.6136789644577100e+01 0 0 0
538 1 7.7330168421375980e+00 2.1548056012849093e-02 1.0961568965130366e+01 0 0 0
1110 2 1.5779971161226498e+00 5.6941465935642581e+00 1.6938365560502447e+01 0 0 0
1111 1 1.0642704702983243e+01 7.6197619785370900e+00 1.5523985903647526e+01 0 0 0
1112 2 1.1464122689913513e+01 7.5065163446838090e+00 1.5008948884252172e+01 0 0 0
1113 2 9.9090239596186755e+00 7.6227569184988955e+00 1.4863081445625623e+01 0 0 0
1114 1 8.9196325248246033e+00 7.5717189141679873e+00 1.3631866538455512e+01 0 0 0
1115 2 9.3091884439886616e+00 6.8621550064080781e+00 1.3033701759560445e+01 0 0 0
1116 2 7.9503690248387082e+00 7.4836557532807904e+00 1.3535265048590391e+01 0 0 0
33 2 1.1482318951191127e+01 1.3423583709443387e+00 3.7317024549296227e+00 0 0 0
1120 1 9.2242486805341120e+00 1.0438223020605086e+01 1.5078476852445467e+01 0 0 0
1121 2 8.7621613651970947e+00 1.0489119967419750e+01 1.4234156823930160e+01 0 0 0
1122 2 1.0174632363460832e+01 1.0639068954010874e+01 1.4966862600390089e+01 0 0 0
1123 1 7.5460131051728974e+00 9.0822077822826017e+00 1.6645057690580138e+01 0 0 0
1124 2 8.1798356275898740e+00 9.4982411768949611e+00 1.5976527185529308e+01 0 0 0
1125 2 7.6404846161708875e+00 9.5776257787381152e+00 1.7474573836173313e+01 0 0 0
1126 1 6.2530846607455022e+00 7.5714924455320656e+00 1.3274735262115103e+01 0 0 0
1127 2 5.5214585559501650e+00 6.9798229930607958e+00 1.2943797154285695e+01 0 0 0
1128 2 6.0226998775153806e+00 8.4113156901554493e+00 1.2946825525120248e+01 0 0 0
1129 1 1.0721684047999002e+01 9.3027143618172392e+00 1.1859886009557711e+01 0 0 0
1130 2 1.0017589614711531e+01 9.0283121811304419e+00 1.2493666345865735e+01 0 0 0
1131 2 1.0718778956339188e+01 8.7158133583797781e+00 1.1060134614644303e+01 0 0 0
1132 1 7.8229558015192424e+00 1.0909394342730028e+01 1.2907745204122778e+01 0 0 0
867 2 3.7415785516042956e+00 1.8181965425151489e-01 6.7493851417220361e+00 0 0 0
1134 2 6.9537705745677565e+00 1.0945734183968439e+01 1.3388108432711483e+01 0 0 0
516 2 9.4215064181816874e+00 7.4554056230517629e-01 7.3224523387456228e+00 0 0 0
1137 2 1.0945485799641622e+01 1.1217501424679085e+01 1.1758338976196834e+01 0 0 0
1138 1 7.8581235795171196e+00 6.3966190281214619e+00 1.6399598405898580e+01 0 0 0
1139 2 7.9767315446990814e+00 7.3478446024558757e+00 1.6401032135625286e+01 0 0 0
1140 2 8.4750411496037419e+00 6.0008909514285866e+00 1.5741834033107635e+01 0 0 0
1857 2 1.1601226176155460e+01 3.3224550276561948e-01 1.8408388183426709e+01 0 0 0
780 2 6.8730619344884483e+00 1.2119758885446034e+01 1.0115560370223568e+01 0 0 0
779 2 8.3718995735876831e+00 1.2000952141690886e+01 1.0155998027366037e+01 0 0 0
269 2 2.1571037019270536e+00 1.2277792234771301e+01 4.5486345678087918e+00 0 0 0
162 2 9.0625353745866661e+00 1.1515553265979671e+01 4.2443909509853572e+00 0 0 0
77 2 1.1954117381128803e+01 7.0586650744627222e-01 1.7381057457138127e+00 0 0 0
1606 1 6.4088386270748554e+00 7.6631228407492635e+00 1.9230289469506346e+01 0 0 0
1739 2 7.0984545349378818e+00 1.1913128015440241e+01 2.1879040794222654e+01 0 0 0
537 2 1.0837649663557391e+01 6.4794174217349241e+00 5.5584812991574024e+00 0 0 0
1441 1 4.7628949082117531e+00 1.4445638122834494e+00 2.1183734481432317e+01 0 0 0
1537 1 -2.1573328231571775e-02 4.4393571625617891e+00 2.0640826291546091e+01 1 0 0
1443 2 4.9679535338370666e+00 1.9064992671062002e+00 2.2015613610166149e+01 0 0 0