LAMMPS data file via write_data, version 15 Apr 2020, timestep = 0

1944 atoms
2 atom types

-6.0013914518260947e-01 4.0582244145184845e+01 xlo xhi
0.0000000000000000e+00 1.9778846886992977e+01 ylo yhi
0.0000000000000000e+00 2.0471273540689264e+01 zlo zhi
-1.5348402805074102e-02 -1.4128419189589181e-02 1.1118495777896698e-02 xy xz yz

Masses

1 16
2 2

Atoms # atomic

66 2 1.5157292614591386e+01 1.2563340194301436e+01 5.7428052740525732e+00 0 0 -1
1160 2 5.9195774620810750e+00 1.8764026115110106e+01 2.8329763703190571e+00 0 0 0
90 2 5.3622973671921956e+00 1.2029473993102224e+01 8.7073203872730218e+00 0 0 0
910 1 7.7819036223354576e+00 1.0746784780679411e+01 5.7750706927200053e+00 0 0 0
1580 2 5.1884600748887655e+00 1.8546084300714991e+01 6.4138480264960442e+00 0 -1 0
654 2 5.7130275694660364e+00 3.7276949485709103e+00 1.4396170817364051e+00 0 0 0
720 2 7.3177230201900159e+00 1.7069460463994972e+01 5.7247816384328782e+00 0 -1 -1
536 2 1.3523697053024771e+01 1.8595967332773832e+01 1.6887427762058993e-01 0 0 0
669 2 1.5595876498727677e+00 1.7603353817480077e+01 7.3467754626863702e+00 0 0 0
1323 2 8.8336120298594389e-02 1.5680848294972437e+01 3.0548343458460447e+00 0 0 0
1209 2 1.9860808148905701e+01 1.9445646587867021e+01 8.7834107849363292e+00 0 0 0
724 1 1.9272700851085332e+01 4.5807818699471223e+00 9.0583711217214766e+00 0 0 0
258 2 4.8589475290627338e+00 8.0808157331975199e+00 9.8506884121488287e+00 0 0 1
308 2 1.3575589027223515e+01 1.7483514766336405e+01 4.5163334068689176e+00 0 0 0
481 1 1.6007162117710934e+01 1.5359965613449525e+01 6.7109965703118810e+00 0 0 0
9 2 -4.1522913009057616e-01 1.1850204327167104e+01 9.6708565036995982e+00 0 -1 0
1135 1 4.7463819227310511e+00 1.3287215075274695e+01 5.9390204609526869e+00 0 1 0
744 2 1.8204456879330486e+01 1.8337496406598465e+01 3.0750990188960032e+00 0 -1 0
1539 2 -3.6608419367450196e-01 1.7567105712547139e+01 4.5962385623060671e+00 0 0 0
470 2 1.6695756545522784e+01 2.0646487825662048e+00 4.5869321081674750e+00 0 1 -1
1799 2 9.2921603667174182e+00 4.9154320993485495e-01 4.5386936364786781e+00 0 1 0
303 2 1.2296305062372102e+01 1.6961794407944879e+01 7.2452381307934424e+00 0 -1 -1
694 1 1.5638602811887264e+01 1.4649295806532066e+01 9.3182595421178096e+00 0 -1 0
467 2 1.7099969381039489e+01 7.4907398343948550e+00 2.9620883720014457e+00 0 1 0
1367 2 1.8400850517918823e+01 1.8395337374889987e+01 5.4366547111385541e+00 0 0 1
526 1 1.6613146864838299e+01 1.5673243205212239e+01 1.1654095960099864e+00 0 0 0
931 1 1.2334493389282397e+01 2.4907543936548029e+00 9.2431900331441206e+00 0 1 -1
921 2 3.0115312837799080e-01 7.5415631549993323e-01 5.5841404049389958e+00 0 1 0
1395 2 1.0148585887068217e+01 3.2144009508367635e+00 6.3692845910475384e+00 0 0 0
749 2 1.5317137065118075e+01 5.9304994511433833e+00 4.3903304611125167e+00 0 0 1
469 1 1.7251215470084038e+01 1.5313820505539029e+00 4.0066832317925325e+00 0 1 -1
1577 2 1.8614924527636806e+01 1.1455487878934353e+01 5.2606126298259195e+00 0 0 1
1786 1 8.3990580032407625e-01 1.3964204335844107e+01 4.8858674481664526e+00 0 0 1
525 2 1.7714226352173966e+01 8.0075978114716690e+00 7.9486121491821740e+00 0 1 0
1606 1 5.8795838887739791e+00 9.2180759781945447e+00 6.7386600699697619e+00 0 -1 0
108 2 1.7397650928951506e+01 1.1424859778522780e+01 2.3882458429300648e+00 0 0 1
743 2 1.9189055009113144e+01 1.8669701078818342e+01 1.9455482494402927e+00 0 -1 0
1737 2 5.3241083634261841e+00 1.3331708598145758e+01 4.1267449711450860e-01 0 0 1
1121 2 1.2275635571391692e+01 1.2467196174845665e+01 4.9312281275767761e-01 0 0 0
1173 2 1.5034761643009348e+01 2.1944189829349172e+00 8.6658985418144638e+00 0 1 0
1098 2 3.5839102185877003e+00 1.1205680773542008e+01 7.7797889290334563e+00 0 1 0
966 2 1.4903850391931096e+01 1.5843525010622178e+01 1.7735843597694922e+00 0 0 0
1094 2 1.8926947083228523e+01 9.5444552523361601e+00 6.9026130940284665e+00 0 2 0
1325 2 1.3197909635991431e+01 5.6036347736999756e+00 5.1534864401434168e+00 0 0 0
1399 1 9.5139336949676583e+00 8.7025910930296000e+00 9.7684937916168550e+00 0 0 0
1582 1 7.9843651560821982e+00 4.5243135695441454e+00 8.2747566594406052e+00 0 0 0
1513 1 1.4561519036998913e+01 2.8705371702566906e+00 8.2483094465447437e-01 0 0 0
1330 1 1.0460939605696156e+01 1.6522460372231791e+01 4.7352431197488034e+00 0 0 0
1326 2 1.3337439827850591e+01 5.4372084224851793e+00 3.6031227611474597e+00 0 1 0
305 2 5.5855916463743025e+00 6.3400825725514576e+00 5.7511599293262110e+00 0 0 1
11 2 -4.0440913202490236e-01 1.9041818105626927e+01 1.1939759767816025e+00 0 -1 0
288 2 1.1213732783735816e+01 6.3703406917722329e+00 3.5637765920548881e+00 0 0 0
321 2 9.6374834589546303e+00 1.5261161666955992e+01 9.9092471973307319e+00 0 -1 1
307 1 1.2839643316717128e+01 1.7284633288121690e+01 3.8769810894725660e+00 0 0 0
1362 2 1.1814045599758565e+01 5.0760772675851813e+00 6.5166063191001768e+00 0 0 0
1317 2 -2.7136539123978520e-01 1.3930077558539281e+01 9.1199419637457648e+00 0 -1 0
1764 2 1.4726368186394823e-01 6.9530993825867400e+00 2.4748157573422005e+00 0 1 0
1561 1 1.6785137514405424e+00 8.1461672151659030e+00 7.5003320185080486e+00 0 1 0
666 2 7.5979730759135489e+00 7.5830723674448333e+00 2.3023061575678980e+00 0 0 0
1767 2 1.6641548724538222e+01 6.2135640461078179e-01 1.3538639900217440e+00 0 1 1
737 2 1.0040016059942596e+01 1.1160280435528426e+01 1.7423070444397819e+00 0 0 0
968 2 7.6761587190523208e+00 1.5832576466139411e+01 9.9736786486507931e+00 0 0 0
1128 2 1.2100268416487404e+01 9.3513474446520934e+00 6.0800358827473611e+00 0 1 1
74 2 1.5571329368973913e+01 1.0282575934652803e+01 6.7612896372944702e+00 0 0 0
1800 2 1.0882219304365481e+01 5.8016223826823954e-01 4.8737522279328767e+00 0 1 0
1820 2 1.2758064812518123e+01 1.8081336941625406e+01 2.4975677353307160e+00 0 -1 1
1543 1 2.7887145723279452e+00 1.7862715423592928e+01 4.2409885642394984e+00 0 0 0
234 2 1.1618602275437116e+01 1.3286171097262347e+01 3.8582717638859156e+00 0 0 -1
677 2 8.1326041671837257e-01 8.9765792744289161e+00 2.1009368504021277e+00 0 0 0
514 1 1.5876473028444472e+01 3.4744787973289912e+00 5.5478768988234126e+00 0 1 0
1356 2 1.8662819129457375e+00 3.0402177840007201e+00 7.5196930579356724e-01 0 0 2
1747 1 5.8090020257813446e-01 1.0520836534572338e+01 5.2634999619974625e+00 0 0 1
676 1 1.2459155916986249e+00 8.2305113592461758e+00 1.6183125743541527e+00 0 0 0
106 1 1.7189216144650658e+01 1.0735466705592239e+01 1.7629605349348860e+00 0 0 0
286 1 1.0826863735119673e+01 7.0541352664832964e+00 4.0848407393737727e+00 0 0 0
1084 1 3.3904049341816411e+00 1.0165474236812493e+01 6.5841501007138676e+00 0 0 0
483 2 1.5852891923441437e+01 1.5026608077911719e+01 7.6210080553751594e+00 0 0 0
64 1 1.5445070595710479e+01 1.3292568280142074e+01 5.1433977220692499e+00 0 0 -1
1159 1 6.7390101044022188e+00 1.8785964457494362e+01 3.4464959723186990e+00 0 0 0
1125 2 9.5760112223763727e+00 6.0351532613870482e+00 5.7299466153559964e+00 0 1 0
1821 2 1.2600201153231311e+01 1.9577263484994575e+01 1.8909380666194644e+00 0 -1 1
1137 2 5.1896957655464178e+00 1.3009933806248954e+01 6.7805289746392816e+00 0 1 0
88 1 6.2221853804813403e+00 1.2400686023438737e+01 8.3906781202724208e+00 0 0 0
1798 1 1.0015611877296672e+01 1.7421821485891453e-01 5.1241420134385613e+00 0 1 0
443 2 7.3318041811071710e+00 1.1013976757637220e+01 1.8182646125110464e+00 0 1 0
674 2 1.1963967009794622e+01 1.0461058055577384e+01 8.7531126413887446e+00 0 -1 0
704 2 -1.4162703004738780e-01 1.9229820023563644e+01 8.1105672995913558e+00 0 0 -1
934 1 5.8833121433074593e+00 7.6086967742367841e+00 2.5957422010900926e+00 0 1 1
1332 2 9.8165054959893165e+00 1.6547977428514233e+01 5.5623987616918429e+00 0 0 0
226 1 -3.5177353646384169e-01 1.2583563175277909e+01 1.3295961805055658e+00 0 0 0
1368 2 1.6930151941431028e+01 1.8157405799054704e+01 5.3051230748407647e+00 0 0 1
665 2 8.9447688952833211e+00 7.1472328756696220e+00 1.7943372236080146e+00 0 0 0
1578 2 1.9282732760627646e+01 1.1952605316075438e+01 6.6114997866978262e+00 0 0 1
1144 1 1.6874801197797439e+01 1.2439272462365031e+01 9.0246892923311410e+00 0 0 0
269 2 1.8307095202610316e+01 1.5244537277416219e+01 4.3179056537343765e+00 0 0 0
1315 1 -3.8137029181060356e-01 1.4921459598894852e+01 8.9467598424803469e+00 0 -1 0
62 2 1.7806464620920707e+01 4.7033297762406852e+00 8.1845002746501638e+00 0 0 -1
95 2 7.1842971398127693e+00 1.4076294879539411e+01 8.1051198599843186e+00 0 0 0
1583 2 8.4368557160381457e+00 5.1653212194754765e+00 7.7206739556502484e+00 0 0 0
1086 2 3.4892435521493033e+00 1.0464010743860518e+01 5.6467957851070159e+00 0 0 0
1300 1 1.1765359033783451e+00 1.2374209660098108e+01 7.0759897059328303e+00 0 0 0
933 2 1.3019087160191342e+01 2.5212159298627217e+00 8.5378530450457450e+00 0 1 -1
719 2 6.5289937771757698e+00 1.7974017835996165e+01 4.7551976023009175e+00 0 -1 -1
521 2 1.6214402776560341e+01 5.1748907200558163e+00 2.0127236182674171e-01 0 1 1
301 1 1.2507516789728271e+01 1.6137452316904628e+01 7.6954897262850270e+00 0 -1 -1
1819 1 1.2763676403139470e+01 1.8642239767677907e+01 1.6774240789703210e+00 0 -1 1
471 2 1.7091424785621765e+01 5.8109598249439809e-01 4.2566774829887946e+00 0 1 -1
1401 2 9.9936534035137949e+00 7.8966107125544367e+00 9.3840830393586234e+00 0 0 0
1541 2 6.3885103234935259e-01 5.9490999363293975e+00 4.9630878327385758e-01 0 0 1
739 1 1.1558466741471408e+01 1.5627012508387379e+01 1.0204537198723287e+00 0 0 1
678 2 1.7127818802093668e+00 8.7052833926868409e+00 9.0792340439376595e-01 0 0 0
438 2 8.9481928043024572e-02 1.1404859937660774e+01 2.3793840156095230e+00 0 0 0
867 2 3.7779795427938252e+00 1.6404998411594438e+01 5.5469431796987232e+00 0 -1 0
1169 2 1.9076177372903423e+01 8.1036977640351697e+00 4.0722574581533273e+00 0 0 0
1309 1 9.0767347258989464e+00 2.1454042645953280e+00 6.9864620474916919e+00 0 1 0
444 2 7.4483979538054310e+00 1.2347435476975969e+01 1.1850808889225839e+00 0 1 0
1566 2 9.3522291054731781e+00 1.3486730522257151e+01 5.1481236219734861e+00 0 0 0
1602 2 1.3745468713082568e+01 1.2423562043014652e+01 2.8002436730304754e+00 0 1 1
317 2 1.3784847505390900e+01 1.8043202032647361e+01 9.2749692133088786e+00 0 -1 0
39 2 1.9234912975027367e+01 1.3984638416601699e+01 7.4691971373512418e+00 0 -1 -1
48 2 5.6454358356794225e+00 1.4228562971468811e+01 4.7370123698122732e+00 0 -1 0
274 1 9.6863394914952945e+00 3.2894678487767841e+00 9.7235894381556509e+00 0 1 0
1302 2 5.7106574496020368e-01 1.2312654759518896e+01 7.8748409544697662e+00 0 0 0
1562 2 2.3450372530471171e+00 8.8729887473648823e+00 7.2934803299000324e+00 0 1 0
965 2 1.3910993378669513e+01 1.6134053434328056e+01 2.8857261499861786e+00 0 0 0
75 2 1.6002825329424773e+01 1.1386491062703930e+01 7.8432874329875837e+00 0 0 0
21 2 -1.8236372584767502e-01 7.3247993706600436e+00 5.0378030020662203e+00 0 0 0
1115 2 9.7977784276339963e-01 4.6538047108695189e+00 8.4891702312560238e+00 0 1 0
1136 2 4.3469285189271067e+00 1.4148938076187166e+01 6.2200124800219090e+00 0 1 0
454 1 9.0255773180103471e+00 1.9416240795457448e+01 8.4127925267726127e+00 0 0 0
971 2 5.2051033463714589e+00 2.7667483919248834e+00 8.1283424906999908e+00 0 1 0
1303 1 1.4456415118905399e+00 1.6063196765598143e+01 5.2402234870644500e-02 0 -1 1
523 1 1.6901565173426334e+01 7.4246989089186801e+00 8.1090904975034999e+00 0 1 0
908 2 1.0256011172186875e+01 1.3684355942459895e+01 8.6110820014334681e+00 0 0 0
1170 2 1.9394282458764540e+01 6.9399486027132218e+00 4.8471997933527629e+00 0 0 0
229 1 1.2674677183641005e+00 1.5957507045238639e+01 6.8322335388737425e+00 0 0 0
941 2 1.4195021324683340e+01 7.0931408088714702e+00 9.0205812158002452e+00 0 1 1
323 2 1.0625661403773787e+01 5.1814644177488756e+00 1.7973227474858005e+00 0 1 0
1581 2 4.2584777709293871e+00 1.9093024239992559e+01 7.5689328897934844e+00 0 -1 0
685 1 1.1543785158864823e+01 1.8532242813110102e+01 6.9444129247874917e+00 0 0 0
1613 2 2.7168255035258588e+00 4.6809106523001125e+00 3.0563402346595940e+00 0 1 1
15 2 7.9051762169610260e+00 4.5644335753011704e+00 1.9244286137119282e+00 0 0 0
1164 2 1.1973045734817505e+01 9.7260966261527333e+00 2.8195569773290559e+00 0 1 1
1096 1 3.7454325172866367e+00 1.1897283998698885e+01 8.4678490799802884e+00 0 1 0
46 1 6.2615063279431116e+00 1.4760442536008398e+01 4.2113962324814693e+00 0 -1 0
294 2 1.9060969758977663e+01 1.5588575512388610e+01 9.2613878094818549e+00 0 -1 -1
1095 2 1.9492841169399860e+01 8.1900005132366811e+00 6.6268493281223195e+00 0 2 0
1559 2 1.0850397898146863e+01 1.3930688830623675e+01 1.1390239361485515e+00 0 0 1
322 1 1.0353509585651267e+01 5.9704409615723248e+00 1.2739775233655359e+00 0 1 0
504 2 1.9309316878155681e+01 1.1156104958214433e+01 2.2649441517813515e-01 0 1 1
1116 2 1.6958059095021842e+00 3.9680727035365186e+00 7.2676096289990006e+00 0 1 0
318 2 1.3707970706736111e+01 1.6534435230930065e+01 9.0025792560075235e+00 0 -1 0
245 2 1.7676350669220461e+01 1.5623806625036954e+01 6.7720310471421561e+00 0 0 0
225 2 4.6278068676289452e+00 1.1983166089833510e+01 4.9349184935657480e+00 0 0 0
1154 2 1.7947220338196200e+01 1.3087473194021824e+01 3.7007184805902358e+00 0 1 0
1123 1 8.9145059332385568e+00 6.3265631548190342e+00 6.3705829254872377e+00 0 1 0
227 2 -8.7647440411347755e-02 1.3477899978753374e+01 1.6290383744698547e+00 0 0 0
270 2 1.9125879314116037e+01 1.5292697904119176e+01 2.9668400614981523e+00 0 0 0
1618 1 1.5082402418073519e+01 5.5724244684343640e+00 9.7610503496902208e+00 0 0 0
753 2 1.3405285956665599e+01 9.3587300163028964e+00 9.2475290021387249e+00 0 0 -1
468 2 1.7908233581662042e+01 7.8305807433633898e+00 1.7233245912168611e+00 0 1 1
742 1 1.8273695381059770e+01 1.8486453303582973e+01 2.1073285044571772e+00 0 -1 0
298 1 1.0780320613039970e+01 6.5160096417329161e+00 8.9342180775507476e+00 0 0 0
940 1 1.3422842444289000e+01 7.6154541680799248e+00 8.8468529399827283e+00 0 1 1
217 1 1.2383313220340272e+01 1.3758942417171639e+01 6.6977696581241029e+00 0 0 -1
65 2 1.4653751372587772e+01 1.3403297299914266e+01 4.5334941042198285e+00 0 0 -1
437 2 4.1978478181379719e-01 1.0676775163324967e+01 3.6929444010539889e+00 0 0 0
1818 2 1.1972768168024642e+01 6.5451689696619377e+00 1.5115969209569771e+00 0 2 1
1341 2 1.1261725014696324e+01 3.0894924176289256e+00 2.9547425063158270e+00 0 1 1
1810 1 1.8709963383324482e+01 1.3093986048118845e+01 5.4404844596048141e-01 0 0 1
686 2 1.0894148404898781e+01 1.9111606233380087e+01 6.4350882805478102e+00 0 0 0
1348 1 3.6315767219631576e+00 1.8873693284454255e+01 9.2994078961489208e+00 0 -1 0
1761 2 8.9218948512060194e+00 2.2333442045936729e+00 4.3700055085447825e-01 1 0 1
1340 2 9.9065439980541008e+00 4.0101992885946549e+00 2.9691960983602179e+00 0 1 1
319 1 1.0510147886558169e+01 1.5097638263389046e+01 9.5798042912147690e+00 0 -1 1
261 2 7.2057648817160400e+00 1.4589464785285324e+01 1.0079781154492085e+00 0 0 -1
1816 1 1.2808818273434342e+01 6.7176478163836224e+00 2.0101073157064180e+00 0 2 1
1514 2 1.5323309250839076e+01 2.2104356271658969e+00 8.4672993601114732e-01 0 0 0
688 1 4.5347433841440905e+00 1.3346080693369957e+00 4.9730316290160124e+00 0 -1 0
920 2 1.3103913452594620e+00 1.9606081119347824e+01 6.0486771815656004e+00 0 0 0
292 1 1.8387262137201002e+01 1.5827288678897650e+01 9.9221304950023761e+00 0 -1 -1
1762 1 -2.0622532423826845e-01 6.0315003777948091e+00 2.4124033231728994e+00 0 1 0
480 2 1.3756736197835190e+01 6.0363672578105803e+00 7.1409990404165524e-01 0 1 -1
919 1 1.2612829841179987e+00 5.8124088496415682e-01 5.4519504126237033e+00 0 1 0
520 1 1.7178566313310387e+01 4.9698525744710231e+00 1.3618265116708830e-01 0 1 1
752 2 1.4135111104969432e+01 1.0617460798775188e+01 8.6640155729747850e+00 0 0 -1
316 1 1.3698458282319237e+01 1.7196248639409010e+01 9.7142909105622213e+00 0 -1 0
865 1 3.8757691532724818e+00 1.5807223051724781e+01 6.3285141686161825e+00 0 -1 0
230 2 5.9111584309496989e-01 1.5452513464388366e+01 7.3304930427260349e+00 0 0 0
462 2 3.5573728054434612e+00 3.0701702634303971e+00 5.4964212096505181e+00 0 1 0
103 1 1.8155064879737868e+01 3.6962397102412266e+00 2.5082509320327242e+00 0 0 0
903 2 1.2064974036196521e+01 2.6189753098903230e+00 5.6497745857412012e+00 0 1 0
1085 2 4.2630793554743125e+00 9.8231549254583026e+00 6.7601044128178627e+00 0 0 0
102 2 1.9036517014962961e+01 1.3653776185985071e+00 4.9471915441175653e+00 0 1 0
1753 1 -4.3389967848492172e-01 2.0834651173991499e+00 9.5583563500270756e+00 0 1 0
1525 1 2.5959266175977449e+00 1.2954678690717987e+01 2.9594322447706869e+00 0 0 1
300 2 1.0510634778998075e+01 5.8161957489034997e+00 9.5431634784113992e+00 0 0 0
1311 2 8.1313114579222265e+00 2.1959033254115141e+00 7.1691336850081910e+00 0 1 0
905 2 1.9822466973344092e+01 2.9530934614385815e+00 6.3521386418987040e+00 0 0 0
748 1 1.6220010937539428e+01 6.3875965804410617e+00 4.3709796937334460e+00 0 0 1
19 1 6.3806462228643102e-01 7.7792932501448098e+00 4.8734111221442600e+00 0 0 0
1350 2 4.1484583096332921e+00 1.9521026334534429e+01 9.7590628043315331e+00 0 -1 0
1782 2 9.3096143757696037e+00 1.0866742509429104e+00 2.1247948572586162e+00 0 1 0
1358 2 8.8003424935488823e+00 1.6032967420623269e+01 1.1055959428544211e+00 0 0 -1
1608 2 5.9851655981743432e+00 8.3780593400943264e+00 6.3102262863629370e+00 0 -1 0
970 1 5.0326610085349701e+00 2.0697274521355924e+00 8.8359099810675854e+00 0 1 0
1171 1 1.4493886989510251e+01 2.1827621134023087e+00 7.8464227862223908e+00 0 1 0
489 2 8.8237888465645931e+00 9.5514462736774526e+00 6.4008218361176210e+00 0 1 -1
85 1 3.9096997023964768e+00 6.1595622519891817e+00 6.4479998001412842e+00 0 0 0
1114 1 1.3335920823077796e+00 3.7968834589816094e+00 8.1626878069917854e+00 0 1 0
1122 2 1.3782816920227742e+01 1.2098170218224023e+01 6.0446798181890637e-01 0 0 0
1614 2 3.7126669240902368e+00 3.7331774803392204e+00 2.2761556264800644e+00 0 1 1
876 2 5.7184103556705459e+00 1.0515187763004890e+01 3.6000532913900107e+00 0 0 0
1754 2 1.9204015692298726e-01 2.5519658168177850e+00 8.8645625240422667e+00 0 1 0
47 2 6.2088070212954296e+00 1.5649938841530684e+01 4.5598623367623858e+00 0 -1 0
1126 1 1.2411404558147247e+01 8.6662815524291350e+00 5.5189932359349028e+00 0 1 1
1749 2 1.0525745396947288e+00 1.0921321883203850e+01 6.0167562669850367e+00 0 0 1
701 2 9.5099764423427011e+00 1.6995845054816552e+01 3.2915310141663436e+00 0 0 -1
461 2 2.0215563400092740e+00 3.6380013631791059e+00 5.1996128686201688e+00 0 1 0
1584 2 8.7235412126252871e+00 3.8794705932204954e+00 8.5964394527616594e+00 0 0 0
60 2 1.2139588932156287e-01 6.4809540027182431e+00 9.5517901261691875e+00 0 0 -1
223 1 4.4321014836254369e+00 1.1256063288468221e+01 4.3109847274013156e+00 0 0 0
911 2 8.0502859524220725e+00 1.1679291847696213e+01 5.6686113552949688e+00 0 0 0
1601 2 1.3366581547216647e+01 1.3906826571640964e+01 2.7206967135150539e+00 0 1 1
69 2 -4.1170818853462332e-01 1.7934817723524379e+01 9.9041439596958192e+00 0 -1 0
1381 1 1.8207543580820417e+01 2.1652706652960392e+00 1.0195903552939299e+01 0 0 0
1307 2 1.8501845994379973e+01 1.1674003111352951e+00 8.9534624210823033e+00 0 0 1
1526 2 2.8428702597254327e+00 1.3788052918698156e+01 2.4968409312031765e+00 0 0 1
218 2 1.2642135967185437e+01 1.4610295299935135e+01 6.9924606923398729e+00 0 0 0
1107 2 2.3327304125536164e+00 6.8711119730027308e+00 4.2279782896618459e+00 0 1 1
482 2 1.5867558133598770e+01 1.4592388952933341e+01 6.0981558113368521e+00 0 0 0
687 2 1.1691369400359246e+01 1.8914588296277884e+01 7.8420842157267971e+00 0 0 0
1146 2 1.7040140674198341e+01 1.2028741266388980e+01 9.9292079447021795e+00 0 0 0
900 2 7.8861645450738767e+00 8.5920187696385995e+00 9.2300661159872970e+00 0 0 0
901 1 1.2637162096204387e+01 1.9191196988311052e+00 5.2938807064515814e+00 0 1 0
517 1 1.7219282272614151e+01 1.8177853542015296e+01 8.5238693282023164e+00 0 0 0
1127 2 1.1582150566959980e+01 8.1619074484915437e+00 5.3554501175167806e+00 0 1 1
1369 1 6.6971861473729044e+00 3.0806886115434424e+00 4.5573050521681351e+00 0 0 1
1377 2 7.2668601545012477e+00 5.0057831443822405e+00 9.9488778338890871e+00 0 1 1
1308 2 1.8871582776089973e+01 8.4807885813153383e-01 7.2941867731775929e+00 0 0 1
13 1 8.3655435404781606e+00 4.5811774962566494e+00 2.8329637433968182e+00 0 0 0
1538 2 -6.9997565972750753e-02 1.8192407775984872e+01 3.1886674887798927e+00 0 0 0
94 1 7.5450464878319696e+00 1.4920651253265435e+01 8.3243414576097194e+00 0 0 0
306 2 7.0972893039029055e+00 6.2712818890169135e+00 5.4667088432414017e+00 0 0 1
91 1 1.8501048517575853e+01 5.3237335002556652e+00 4.6922679839079393e+00 0 0 0
716 2 1.3459499447223097e+01 1.9780818754647507e+00 1.8968622268583986e+00 0 0 1
93 2 1.8607754394888225e+01 4.8642594571901920e+00 3.8329474229115612e+00 0 0 0
502 1 1.9936015401585681e+01 1.0409007980128163e+01 7.1769634151186409e-02 0 1 0
1544 2 2.9477715337005987e+00 1.8463108299693541e+01 4.9830451633754675e+00 0 0 0
1557 2 2.2798649871393000e+00 2.1907755091626879e+00 3.2934097024335429e+00 0 0 1
689 2 4.3078785861561899e+00 6.1171394414086044e-01 5.5036346137802044e+00 0 -1 0
1322 2 6.9737879500155331e-01 1.5601255066560883e+01 1.6026762387214049e+00 0 0 1
219 2 1.2971574055454067e+01 1.3070328895879388e+01 6.9621698344885887e+00 0 0 0
740 2 1.2077927897402844e+01 1.5289703460905931e+01 1.9520060650861590e-01 0 0 1
1781 2 1.0616018008224369e+01 1.4974865331419580e+00 1.4489640840678548e+00 0 1 0
488 2 1.0148355463434330e+01 9.3954748551738465e+00 7.1794043811190615e+00 0 1 -1
1314 2 3.8577524010443842e-01 4.9359556565880895e+00 3.8661089768460126e+00 0 0 1
1161 2 7.3542538591891775e+00 1.8117732419992016e+01 2.9833354453487280e+00 0 0 0
1619 2 1.5714042980088205e+01 5.1248926162096806e+00 9.1547010191429496e+00 0 0 0
751 1 1.3568457286076299e+01 1.0306247858263470e+01 9.4399009279091946e+00 0 0 -1
668 2 2.0841186891324832e+00 1.8831369491142084e+01 8.1793712167533030e+00 0 0 0
460 1 2.8976538248258432e+00 3.7603888594179113e+00 5.6920266512253246e+00 0 1 0
287 2 1.0192032828786113e+01 7.4427037736667732e+00 3.4764865528617923e+00 0 0 1
466 1 1.7502940162905972e+01 8.2527674288486530e+00 2.5028424324028191e+00 0 1 0
1554 2 7.5461306302440736e+00 3.7810002349167121e-01 3.3594387719057943e+00 0 0 1
231 2 1.0154445132377399e+00 1.5694729391254226e+01 5.9276599364746918e+00 0 0 0
717 2 1.2824224728606463e+01 1.8496784909875417e+00 3.3417457256840386e+00 0 0 1
516 2 1.5199110028667636e+01 4.0627051167036088e+00 5.1368330002480072e+00 0 1 0
650 2 1.4832654735110799e+01 1.8173467821801292e+01 6.2583986955223061e+00 0 -1 0
932 2 1.2622525502961345e+01 3.0573487103715977e+00 9.9802897608856505e+00 0 1 -1
1558 1 1.0777588727412612e+01 1.2999894693408789e+01 9.2973379985877358e-01 0 0 1
1106 2 2.6305386321959987e+00 7.1056284519936197e+00 2.7416657303425960e+00 0 1 1
1357 1 8.4247087818409039e+00 1.5494227544202644e+01 4.0765482270245479e-01 0 0 0
86 2 3.4567698063795325e+00 5.3510379833941881e+00 6.1950518247125359e+00 0 0 0
1360 1 1.2234921876428384e+01 5.9516787560726794e+00 6.4844942863860089e+00 0 0 0
268 1 1.8260313104365437e+01 1.4978285523110417e+01 3.4094300356423477e+00 0 0 0
302 2 1.1723226122080980e+01 1.5919437083590626e+01 8.2178281462753606e+00 0 -1 -1
232 1 1.0894521309864240e+01 1.3586439016464189e+01 4.3847539865698613e+00 0 0 -1
246 2 1.9211445464239759e+01 1.6200597609582726e+01 6.4159226654794468e+00 0 0 0
788 2 1.5670545341795556e+01 1.8775586909216230e+01 8.2957945160605266e+00 0 -1 0
70 1 8.9068764023352589e+00 1.6888129443559084e+01 6.8835499120046784e+00 0 -1 0
1172 2 1.5089015199944482e+01 2.6065836021828357e+00 7.1842648721661817e+00 0 0 0
515 2 1.6382966492453029e+01 4.1082230536361806e+00 6.0422163706374308e+00 0 1 0
309 2 1.2096108177709089e+01 1.7184374342151116e+01 4.4367880249273162e+00 0 0 0
1153 1 1.7635760283513836e+01 1.2215342145839607e+01 4.0399305497633407e+00 0 1 0
1575 2 6.5369830998092606e+00 4.2184430527873120e+00 7.4179487963627162e+00 0 0 0
1568 2 3.5393138881017521e+00 5.4296462071256339e+00 1.2488309297384761e+00 0 0 1
280 1 6.5342414042267114e+00 1.9459732781636092e+01 9.0204422541986240e+00 0 -1 0
518 2 1.7789330765004294e+01 1.7532418399249931e+01 8.8492180475829816e+00 0 0 0
1515 2 1.4861413895297508e+01 3.8196633003920613e+00 9.2726852807155158e-01 0 0 0
256 1 3.9127003914200262e+00 8.2164712280557559e+00 1.0098901585405162e+01 0 0 1
244 1 1.8602933331837352e+01 1.5404454155096293e+01 6.5361635740948154e+00 0 0 0
942 2 1.2693826562744066e+01 7.1381885825469684e+00 9.2653223464173600e+00 0 1 1
875 2 6.7801572307087667e+00 9.4317393677139272e+00 3.1083225410746507e+00 0 0 0
272 2 1.8448403932856845e+01 5.9002913248152220e+00 3.0625888672094076e-01 0 0 1
1301 2 2.1102959297075672e+00 1.2332844786572917e+01 7.4988937107295204e+00 0 0 0
896 2 4.8614361936805661e+00 1.6578324873783330e+01 7.7560247114370098e+00 0 -1 0
787 1 1.4760186850432353e+01 1.9042373834982449e+01 7.9443502542560394e+00 0 -1 0
447 2 4.8525162541158604e+00 1.7802067315363221e+01 4.9778471906504709e-02 0 0 -1
1560 2 1.0113566931801754e+01 1.2789442040242736e+01 2.6820909760430872e-01 0 0 1
1349 2 3.2421702940631727e+00 1.8247957924326062e+01 9.9932481217429512e+00 0 -1 0
1564 1 8.5433731049414732e+00 1.3279072054902667e+01 5.6659527780606593e+00 0 0 0
700 1 8.9254126921113919e+00 1.7167353371179775e+01 2.5162235857959527e+00 0 0 -1
271 1 1.8996511286107875e+01 6.6921934881811351e+00 6.2969461447522079e-01 0 0 1
519 2 1.7663245622445164e+01 1.9035443969973720e+01 8.4322102864126034e+00 0 0 0
527 2 1.7222379539459496e+01 1.5646424062118937e+01 1.9420410369069039e+00 0 0 0
1372 1 4.5922258930912232e+00 1.8222982312273061e+01 2.2926318973624058e+00 0 -1 1
107 2 1.7396957120708329e+01 9.9151880101377543e+00 2.2639155943352463e+00 0 0 1
898 1 6.8705469156181929e+00 8.5220511703659056e+00 9.1716070058515005e+00 0 0 0
750 2 1.6023141859987533e+01 7.1743193643054237e+00 4.9276733375565245e+00 0 0 1
76 1 1.5184612013742047e+01 8.2670709440605563e+00 6.0974050904484995e+00 0 0 0
1373 2 4.2077525648876710e+00 1.8920222363831325e+01 1.6997998554428397e+00 0 -1 1
1336 1 7.0769470191687924e+00 4.6209909618643570e+00 5.6792993836397476e-01 0 0 0
1825 1 1.4364796908257793e+01 1.1218658030266520e+01 1.9780944283858062e+00 0 1 1
73 1 1.5238793869495471e+01 1.1070838244318553e+01 7.2610576383544823e+00 0 0 0
63 2 1.6946790475741292e+01 5.6477990312561186e+00 7.4327957225631591e+00 0 0 -1
1607 2 6.5071003392414619e+00 9.8488852597050300e+00 6.3445590407238583e+00 0 -1 0
71 2 8.6174617894772556e+00 1.6055014353444410e+01 7.3555193785769122e+00 0 -1 1
1545 2 1.9052454450648217e+00 1.8029538481032883e+01 3.8605762155325061e+00 1 0 0
897 2 4.9473980312172969e+00 1.6677715583767423e+01 9.3224322468463576e+00 1 -1 0
899 2 6.6029656976072575e+00 8.7581373993536822e+00 8.3017347788482176e+00 0 0 0
690 2 3.9489220264821885e+00 1.3837537718313035e+00 4.2105970829481558e+00 0 -1 0
1574 2 5.1797751344239007e+00 4.8544300603827351e+00 7.0198690327717603e+00 0 0 0
895 1 5.4491732881231663e+00 1.6787892810542719e+01 8.5128703502405028e+00 0 -1 0
1780 1 9.7227302893574468e+00 1.1958154783490411e+00 1.2381445557386814e+00 0 1 0
736 1 1.0331538421878344e+01 1.0227099719958904e+01 1.7438936433298318e+00 0 0 0
233 2 1.1406148242159398e+01 1.3607533610165268e+01 5.2602589137476841e+00 0 0 -1
738 2 9.5490783034417568e+00 9.7577963832656032e+00 2.0703853711019571e+00 0 0 0
89 2 6.8305795618467000e+00 1.1690006487675117e+01 8.1619329047433418e+00 0 0 0
1310 2 9.1628032857567483e+00 1.4263927278117343e+00 6.2842686402208621e+00 0 1 0
1371 2 6.3745357723182741e+00 3.7255729718021313e+00 5.3650742488902265e+00 0 0 1
1097 2 3.4631391856640574e+00 1.1493893994373444e+01 9.2942839584925299e+00 0 1 0
1388 2 2.9637660724874966e+00 6.6708521264582921e-01 1.4243564599058027e+00 0 0 1
1361 2 1.2621663640567853e+01 6.2560394244387698e+00 7.3134365911024233e+00 0 0 0
58 1 -3.9423334012206979e-01 5.7436052302624780e+00 9.2423864266439324e+00 0 0 -1
1579 1 4.3732276694447263e+00 1.8992501903425715e+01 6.5716092122372602e+00 0 -1 0
1785 2 3.6023168452225640e+00 2.2839638913314633e+00 9.9938700458925176e+00 0 0 0
260 2 6.5320943072821347e+00 1.4221389583259628e+01 2.3390411178336121e+00 0 0 -1
228 2 2.2007503785154370e-01 1.2384378884437433e+01 6.2233022715366570e-01 0 0 0
442 1 7.7370607360437891e+00 1.1422414501787083e+01 1.0300606990465102e+00 0 1 0
20 2 4.6666095295927557e-01 8.7921775967108662e+00 4.8608167210331796e+00 1 0 0
972 2 5.6656422975235374e+00 1.3378900813058425e+00 8.7512210312216379e+00 0 1 0
1827 2 1.3826812341796741e+01 1.0483440416775412e+01 2.3160863973626196e+00 0 1 0
1600 1 1.3455993699330008e+01 1.3174727661256700e+01 3.3490762441802255e+00 0 1 1
281 2 6.1615844443947685e+00 1.8559442035332641e+01 8.8493780005345091e+00 0 -1 0
1778 2 9.9911835469178509e+00 1.9519130684847614e+01 7.3722711317991685e-01 0 -1 1
1576 1 1.9120407202372100e+01 1.1144811361871746e+01 6.0432178566559527e+00 0 0 1
1104 2 3.8576950659641920e+00 1.6420391750646935e+01 1.8809043821183244e+00 0 0 1
524 2 1.6703173734211575e+01 7.6748483447063141e+00 9.0068915070018267e+00 0 1 0
673 1 1.1049078353033032e+01 1.0434772107240928e+01 8.3548793182305516e+00 0 -1 0
1088 2 6.6078615311859856e-01 8.3279663154621701e+00 8.8168403794880437e+00 0 1 0
456 2 9.2935511163119457e+00 5.8018058323592492e-01 8.1686528599753991e+00 0 1 0
789 2 1.4757826074078968e+01 2.2246296955142170e-01 7.8039767250878089e+00 0 0 0
1339 1 1.0886788116799739e+01 3.9836552245286363e+00 3.1873097843489986e+00 0 1 1
1155 2 1.6685545557727330e+01 1.2499353229940674e+01 4.3289038058225060e+00 0 1 0
1331 2 1.0544257266545380e+01 1.5565451583628924e+01 4.5828487312945736e+00 0 0 0
906 2 1.9310194074743187e+01 4.3871570781469131e+00 5.9704273130032748e+00 0 0 0
1563 2 1.1588171759870838e+00 8.0858929334887968e+00 6.6825664738107680e+00 0 1 0
104 2 1.7744876903233653e+01 4.0868045321226587e+00 1.6919076272808800e+00 0 0 0
1394 2 1.0724264446403463e+01 3.9510539757243714e+00 5.0815876823310475e+00 0 0 0
455 2 9.4299422055005611e+00 1.9271225619656349e+01 9.3334551171109403e+00 0 0 0
1366 1 1.7676590978283453e+01 1.8486478049446095e+01 4.7868998322124270e+00 0 0 1