LAMMPS data file via write_data, version 15 Apr 2020, timestep = 200000

972 atoms
2 atom types

1.0296103339969775e-01 1.9888091966602104e+01 xlo xhi
5.7239221920902139e-02 1.9933813778080204e+01 ylo yhi
1.8986394508546311e-01 2.0610908054915171e+01 zlo zhi
-1.9523985097789187e-01 -3.2717353892920076e-02 5.3149202488106458e-02 xy xz yz

Masses

1 16
2 2

Atoms # atomic

4 1 3.8823046229815708e+00 9.8093294650595142e-01 3.4617121637681398e+00 0 0 0
5 2 3.7950046058547739e+00 1.9311884478040158e+00 3.2277508465194047e+00 0 0 0
6 2 3.1878417565490968e+00 7.1969155073668101e-01 4.0171825325864781e+00 0 0 0
7 1 5.8646414764769075e+00 4.3136742529239811e+00 5.1552106856961242e+00 0 0 0
8 2 6.7203794384016842e+00 4.1792179833879164e+00 4.7058884285574631e+00 0 0 0
9 2 5.1281808545492495e+00 4.0993453978596301e+00 4.5250635204362890e+00 0 0 0
10 1 1.2328305853612593e+00 4.2016192139103765e+00 3.6691344315035104e+00 0 0 0
210 2 2.2209214188911769e-01 7.3187180681125588e+00 5.1036532933780876e+00 0 0 0
12 2 1.1348656886799073e+00 4.9696615914226792e+00 3.0539732326717965e+00 0 0 0
13 1 4.6367618708072094e+00 5.8833773224435904e+00 1.6627232017210249e+00 0 0 0
14 2 4.3589739962717102e+00 6.6667726507117360e+00 2.1490891316955860e+00 0 0 0
15 2 4.0536915202522996e+00 5.9633504061578435e+00 8.3399634294570224e-01 0 0 0
16 1 3.9123205096344718e+00 3.7099047595020642e+00 3.3284296229299830e+00 0 0 0
17 2 4.1821451081151517e+00 4.4045455817620951e+00 2.7112554075759232e+00 0 0 0
18 2 2.9414097526693346e+00 3.9540433243897724e+00 3.5705324631650148e+00 0 0 0
19 1 6.0142593509357334e-01 5.9677185214311992e+00 1.7971908696566621e+00 0 0 0
20 2 6.0702017250739582e-01 6.7952376564867913e+00 2.1930319001722585e+00 0 0 0
22 1 1.9976876213267427e+00 5.4487049046674074e-01 5.1988745150223767e+00 0 0 0
23 2 1.0224552735034123e+00 4.9069968324927815e-01 5.1323789934128072e+00 0 0 0
24 2 2.2010895340788919e+00 1.4371002562182507e+00 5.6145979571419860e+00 0 0 0
25 1 2.8083655753371342e+00 5.3177870422578764e+00 6.7168294063562728e+00 0 0 0
26 2 2.6737002781010295e+00 6.0955561779055900e+00 6.1477778334566828e+00 0 0 0
27 2 3.5640344656824841e+00 5.4409526845073151e+00 7.2724754728640910e+00 0 0 0
28 1 6.1401790176560018e+00 6.7343029741845739e-01 5.1028672631836081e+00 0 0 0
29 2 5.4996592768406272e+00 8.6267214875037324e-01 4.3904278068298677e+00 0 0 0
30 2 5.7551950969332939e+00 1.9602983542508930e+01 5.3289709252963018e+00 0 0 0
31 1 7.6521571888254458e-01 1.9838414498076906e+00 2.2620217274152434e+00 0 0 0
250 1 5.5253223704512351e+00 1.6039801681558782e+01 5.5992611627079558e-01 0 0 0
33 2 8.7894462438632304e-01 2.7427187104990267e+00 2.9004167790674051e+00 0 0 0
142 1 4.9582899421657762e+00 9.1789769876226863e+00 6.3729572856433547e-01 0 0 0
35 2 6.4239616132804320e+00 2.7308275323441316e+00 1.2767855755352233e+00 0 0 0
46 1 8.2316493349769448e+00 4.7162741688216974e+00 3.7297820399636032e+00 0 0 0
47 2 9.1971763413203504e+00 4.6182624020600089e+00 3.6589631902006272e+00 0 0 0
48 2 7.9230955114454202e+00 5.3596612352283204e+00 3.0321635743813298e+00 0 0 0
55 1 7.3195376446420317e+00 6.3405107187296972e+00 1.8216937760137002e+00 0 0 0
56 2 7.2075599541521704e+00 7.3157557895936929e+00 1.9593018161294193e+00 0 0 0
57 2 6.3739062449245276e+00 6.0681717912083428e+00 1.8052648975399261e+00 0 0 0
58 1 8.6440904855903256e+00 1.1726509169759545e+00 5.0863619329034799e+00 0 0 0
891 2 3.2275079923686740e+00 1.8818482274110259e+01 8.7162978635731803e-01 0 0 0
60 2 7.7009861549475005e+00 9.2716336264913879e-01 5.0465875735848247e+00 0 0 0
147 2 8.4732259608562241e+00 9.0669868695301243e+00 8.8620219131599764e-01 0 0 0
11 2 7.0304619176703265e-01 4.3780202957396304e+00 4.5043916967811679e+00 0 0 0
63 2 8.4765077473526080e+00 5.7789798331326701e+00 7.3602999324819232e+00 0 0 0
67 1 7.9854886914185439e+00 2.3336628477645820e+00 2.1708846985963151e+00 0 0 0
68 2 8.0497598382515498e+00 3.0700508312704460e+00 2.8620078688539046e+00 0 0 0
69 2 8.7652560572622136e+00 2.5333697960920492e+00 1.4625225015667349e+00 0 0 0
111 2 1.6262461689365517e+00 8.9772298911323372e+00 8.6421474601553172e-01 0 0 0
609 2 7.3221902039633848e+00 1.5802226530924653e+01 1.0025521409857085e+01 0 0 0
443 2 1.0517521882948766e+00 9.8723588161300881e+00 1.0364482427989294e+01 0 0 0
112 1 4.0768610453091219e+00 7.8112628687912080e+00 3.3434514629259708e+00 0 0 0
113 2 4.7537603187174327e+00 7.5132137577765805e+00 4.0132311995391383e+00 0 0 0
114 2 4.1223073793503646e+00 8.8235371765140211e+00 3.3571805369557004e+00 0 0 0
115 1 5.9896817393750119e+00 1.1010491269783158e+01 5.9017954054409234e+00 0 0 0
116 2 5.7990331587105404e+00 1.1976233345788138e+01 6.0364529586976658e+00 0 0 0
117 2 5.5197051339265499e+00 1.0410389438649675e+01 6.5688741882758794e+00 0 0 0
118 1 1.4273087335906640e+00 1.0902102813442106e+01 3.6469140392631969e+00 0 0 0
119 2 9.1140650901331477e-01 1.1063519981363608e+01 4.5016807384149731e+00 0 0 0
120 2 2.4423908923214439e+00 1.0866056073805145e+01 3.7836741415429920e+00 0 0 0
121 1 4.4627744555591864e+00 1.2379787861663447e+01 1.9594503014947113e+00 0 0 0
122 2 5.4321899832207210e+00 1.2449185821537718e+01 1.8620581197452215e+00 0 0 0
123 2 4.0491134338235302e+00 1.2083907143548126e+01 1.0872309898357990e+00 0 0 0
124 1 4.0952908837752222e+00 1.0585953518255357e+01 3.7213519561748698e+00 0 0 0
125 2 4.2038205649395355e+00 1.1255865512664213e+01 2.9899100832445198e+00 0 0 0
126 2 4.6158843540265941e+00 1.0925874870164446e+01 4.4551081058883204e+00 0 0 0
558 2 4.0850762755883050e+00 1.7882128362801989e+01 9.9809390674893539e+00 0 0 0
128 2 1.1675625419006892e+00 1.2605982561906583e+01 1.1116229445190760e+00 0 0 0
129 2 9.1674669988767676e-01 1.1959152778572193e+01 2.5639835856562958e+00 0 0 0
130 1 1.9435459351562727e+00 7.2355780036396649e+00 5.0408919074949416e+00 0 0 0
131 2 2.4906949251783512e+00 7.4277326960340382e+00 4.2850336996342193e+00 0 0 0
132 2 2.0487318333586364e+00 7.9512579565409292e+00 5.7426897384385960e+00 0 0 0
133 1 2.5170766850468480e+00 1.1963314460290736e+01 7.0398060618035210e+00 0 0 0
134 2 1.9245817416150963e+00 1.2263501702019934e+01 7.7878049365071034e+00 0 0 0
135 2 2.3741396929439929e+00 1.2624063191210039e+01 6.3307064208323665e+00 0 0 0
136 1 5.9245574551739679e+00 7.2216104790381976e+00 5.2873636777193900e+00 0 0 0
137 2 6.0075013742249261e+00 6.2767407238132487e+00 5.1987339630559646e+00 0 0 0
138 2 6.7439820599174007e+00 7.5840044218764859e+00 4.9768460122746880e+00 0 0 0
139 1 5.4661009837128349e-01 8.5740751157478403e+00 2.2808108753660137e+00 0 0 0
140 2 8.4119835771360618e-01 9.3357666118668323e+00 2.8574331086675180e+00 0 0 0
444 2 1.0093545701355517e+00 1.1510368779171893e+01 1.0229529128187552e+01 0 0 0
711 2 8.5878763387636905e+00 5.7969334704317328e+00 5.1449106488787466e-01 0 0 0
218 2 3.8026848155127890e+00 1.6081084046483969e+01 3.7654721724612750e-01 0 0 0
154 1 7.9843128688464944e+00 1.0764914119943095e+01 4.0699491002232371e+00 0 0 0
155 2 7.4905294080675793e+00 1.0705855832123859e+01 4.9196536425846595e+00 0 0 0
156 2 8.9837235674947014e+00 1.0828723773916916e+01 4.1432772957332045e+00 0 0 0
163 1 7.0869808248930619e+00 1.2601584795211302e+01 2.2226875019947481e+00 0 0 0
164 2 7.3040632933000422e+00 1.2054074796199842e+01 3.0387585082912225e+00 0 0 0
165 2 7.8306498961596276e+00 1.2368240332046893e+01 1.5362826944839370e+00 0 0 0
166 1 8.6328072184733209e+00 7.8671235884955770e+00 4.9133918654038444e+00 0 0 0
167 2 8.9976032990041350e+00 8.4631740813584795e+00 5.5477695916871381e+00 0 0 0
168 2 8.6628611982195913e+00 7.0426166317648011e+00 5.4732688485381580e+00 0 0 0
544 1 4.0780190056150136e+00 1.4512873310806553e+01 1.0152241717070776e+01 0 0 0
171 2 8.8053838461682563e+00 1.2954237072237808e+01 6.4304302537632960e+00 0 0 0
175 1 7.2990252093532382e+00 8.9606969337333684e+00 2.1276986760776939e+00 0 0 0
176 2 7.5422088632837303e+00 9.4763932817468000e+00 2.9321200028125340e+00 0 0 0
177 2 6.4082109831426042e+00 9.2320495523721782e+00 1.7626372165669606e+00 0 0 0
818 2 9.7397413102636072e+00 1.2414571919350740e+01 7.2959509298893022e-01 0 0 0
3 2 2.1218553450920323e+00 2.3173103000420388e+00 9.7906302602045503e-01 0 0 0
372 2 8.0001851536857167e+00 4.8133105840824006e+00 9.7603671004961239e+00 0 0 0
127 1 7.0696277679461661e-01 1.2742323461556488e+01 1.9416796183491052e+00 0 0 0
61 1 9.0959758957761014e+00 5.6588456353787846e+00 6.5944483571358310e+00 0 0 0
220 1 4.1974714998101161e+00 1.4420781764543515e+01 3.5880033048738063e+00 0 0 0
221 2 4.0290813849303522e+00 1.5377598758644062e+01 3.4541440522763645e+00 0 0 0
222 2 4.0818368104112359e+00 1.3885380640133649e+01 2.7697380305783481e+00 0 0 0
223 1 5.8837246652276027e+00 1.7776675669408483e+01 5.4819087196949736e+00 0 0 0
224 2 6.7372061565572254e+00 1.7640966442033481e+01 5.0532744980521995e+00 0 0 0
225 2 5.9091659066925084e+00 1.7323735428656850e+01 6.3271172124769066e+00 0 0 0
226 1 1.3103938672079645e+00 1.7522302919924641e+01 4.1617794305317588e+00 0 0 0
227 2 1.1164023726645080e+00 1.8313176835067665e+01 3.5353258693147271e+00 0 0 0
228 2 1.3288017923065720e+00 1.6713448448400499e+01 3.6314342022970285e+00 0 0 0
229 1 4.7390388699367447e+00 1.9055332078977063e+01 1.8307972002735629e+00 0 0 0
230 2 4.7273401423174102e+00 1.8320846747442879e+01 2.4615835569715148e+00 0 0 0
231 2 4.3791313903183191e+00 1.9834495792194119e+01 2.2946294346258762e+00 0 -1 0
232 1 3.9833264631289746e+00 1.7289058356772507e+01 3.6470018974976224e+00 0 0 0
233 2 3.0484852154748734e+00 1.7388492961460443e+01 3.9634337073390835e+00 0 0 0
234 2 4.5384470245650936e+00 1.7317892524659960e+01 4.4470512163687479e+00 0 0 0
235 1 5.3741448256750957e-01 1.9179550951524803e+01 2.1062061126298186e+00 0 0 0
236 2 8.9801709008494868e-01 2.4813074241998290e-01 2.1128637486582007e+00 0 0 0
237 2 1.2065902383792668e+00 1.8833174018421591e+01 1.5126950416978060e+00 0 0 0
238 1 1.9211687987277843e+00 1.3660837818513730e+01 4.8862643519942273e+00 0 0 0
239 2 2.5705574674351612e+00 1.4041026989446310e+01 4.2271831065359180e+00 0 0 0
240 2 9.8437827462645788e-01 1.3943444340688126e+01 4.7266765754705844e+00 0 0 0
241 1 2.7808607129816041e+00 1.8488827173079059e+01 6.8782836814775283e+00 0 0 0
242 2 2.4648443451454307e+00 1.9179159002222988e+01 6.2153835935181050e+00 0 0 0
243 2 2.5100790207679462e+00 1.7607794406241108e+01 6.6211494647227349e+00 0 0 0
244 1 5.9684547400913450e+00 1.3780679011991847e+01 5.4629653859437592e+00 0 0 0
245 2 5.5393079607196682e+00 1.4382997275913501e+01 6.0755075128899367e+00 0 0 0
246 2 5.6498668844821163e+00 1.4069187254362433e+01 4.5249136547353919e+00 0 0 0
247 1 1.4189647792304854e+00 1.5501799029265747e+01 2.4324493636293298e+00 0 0 0
248 2 9.2546986238957718e-01 1.4664268481189408e+01 2.4923750609367823e+00 0 0 0
249 2 1.9829111580126999e+00 1.5504178775957957e+01 1.6297961256446574e+00 0 0 0
251 2 6.1513751215136301e+00 1.5861335418976108e+01 1.2764703512402811e+00 0 0 0
169 1 8.9571438736490805e+00 1.2253361314576585e+01 7.0724196139310243e+00 0 0 0
262 1 7.8566407529653377e+00 1.7521396114745453e+01 3.8128513468916250e+00 0 0 0
263 2 8.8643693924827645e+00 1.7404802322244056e+01 4.0485312700472393e+00 0 0 0
264 2 7.8182788964663086e+00 1.8232975095969618e+01 3.1124789274521998e+00 0 0 0
271 1 7.3234863016297416e+00 1.9487615669833129e+01 1.9612706890107778e+00 0 0 0
272 2 7.6385910720754540e+00 5.7208744532076028e-01 2.1908588634112345e+00 0 0 0
273 2 6.3596554415252449e+00 1.9382884629089258e+01 1.9498271364421127e+00 0 0 0
274 1 8.6649303096348476e+00 1.4350034350758456e+01 5.3680995391630786e+00 0 0 0
275 2 8.7719693063474526e+00 1.5090896493925172e+01 6.0124258598791007e+00 0 0 0
276 2 7.6770112754804831e+00 1.4292061257084667e+01 5.2328839053935647e+00 0 0 0
277 1 8.7258109962918589e+00 1.8919506878060652e+01 6.7588830393587376e+00 0 0 0
278 2 8.6660268182305966e+00 1.9675892935395833e+01 6.1307143917589082e+00 0 0 0
279 2 8.0228423212680475e+00 1.9112925894881279e+01 7.4156571320583211e+00 0 0 0
283 1 7.2054416709664562e+00 1.5410878932743898e+01 2.2326962509963395e+00 0 0 0
284 2 7.4088684115553534e+00 1.5992298836089615e+01 2.9687693582491788e+00 0 0 0
285 2 7.3193388901722036e+00 1.4458908594629827e+01 2.3653507732578665e+00 0 0 0
452 2 7.3417603849186563e-01 1.3481118321856378e+01 9.1284900294079119e+00 0 0 0
325 1 2.8321736740549621e+00 2.7007324973536146e+00 6.8784637930839807e+00 0 0 0
326 2 2.8230798127716312e+00 3.6495062477153550e+00 6.7130795408560271e+00 0 0 0
327 2 3.7717407539016845e+00 2.4558029151261480e+00 6.9660695084424571e+00 0 0 0
329 2 4.1966765550702387e+00 4.7844255066997649e-01 9.9229098943825988e+00 0 0 0
337 1 4.6693033054503710e+00 5.5080001453666112e+00 8.4852739230045024e+00 0 0 0
338 2 4.4111280983532266e+00 4.8411930640174941e+00 9.1852665483973031e+00 0 0 0
339 2 4.5721591257839771e+00 6.3747847055578868e+00 8.9176991342369103e+00 0 0 0
34 1 5.6250330369861290e+00 2.8452187412229168e+00 7.6339204401465355e-01 0 0 0
344 2 1.0419641720174775e+00 5.2030239377956766e+00 9.3347182505788595e+00 0 0 0
345 2 1.6681044848559630e+00 5.8915126481075992e+00 8.0819277464034869e+00 0 0 0
355 1 9.4018468805891731e-01 1.7772505685138191e+00 8.5721646398215761e+00 0 0 0
356 2 8.8295794554714979e-01 7.8942332752344169e-01 8.7024179229145346e+00 0 0 0
357 2 1.7173231716953723e+00 1.8896661323558317e+00 7.9873461376462895e+00 0 0 0
358 1 5.4823897468860521e+00 2.6082810466012756e+00 7.3464084758536803e+00 0 0 0
359 2 5.5902925361179241e+00 3.4970211585078155e+00 6.9629537897130058e+00 0 0 0
360 2 5.8269301525831878e+00 2.0256006036791927e+00 6.6725626710826500e+00 0 0 0
361 1 9.3197315148397859e+00 2.8149717429906538e+00 6.7722850599873290e+00 0 0 0
362 2 8.9055262270900499e+00 2.1975501356653022e+00 6.1347422490272727e+00 0 0 0
363 2 8.8940803797212578e+00 2.4804695281077884e+00 7.5641334796058493e+00 0 0 0
254 2 9.1933313222154194e+00 1.6286387181978750e+01 1.1799102097001422e+00 0 0 0
379 1 7.3894590584765565e+00 5.8572739802716685e+00 8.6975043551870890e+00 0 0 0
380 2 7.3081132989274655e+00 6.8128191478783311e+00 8.9605621651385619e+00 0 0 0
381 2 6.4720839755128994e+00 5.5098203730541924e+00 8.6363246187710345e+00 0 0 0
391 1 7.6688529988999221e+00 1.9873899889340578e+00 8.7862801706712972e+00 0 0 0
392 2 7.9233173590858685e+00 2.6841534006065357e+00 9.4078353301410136e+00 0 0 0
393 2 6.8498845884568649e+00 2.2534199289620633e+00 8.3588084394859763e+00 0 0 0
577 1 8.8562705372245887e+00 1.6250552031133623e+01 7.0181511571721558e+00 0 0 0
433 1 2.3874795131598621e+00 9.1364339710424591e+00 6.8982004122675082e+00 0 0 0
434 2 2.3849464319218896e+00 1.0152349271279236e+01 6.9452964916025417e+00 0 0 0
435 2 1.7855415235021479e+00 8.9434102460178888e+00 7.6379305183762582e+00 0 0 0
170 2 9.8254287886597176e+00 1.2441787642368277e+01 7.3770568144445061e+00 0 0 0
445 1 4.3471975357011505e+00 1.2387553049332283e+01 8.5914425072704592e+00 0 0 0
446 2 4.1741530578177102e+00 1.3198054978406864e+01 9.1798871259207431e+00 0 0 0
447 2 3.7129551573226558e+00 1.2170009475420880e+01 7.8813356851168601e+00 0 0 0
559 1 7.2733761038845168e-01 1.8960813382737079e+01 8.6535089550016764e+00 0 0 0
451 1 7.6030522403398959e-01 1.2473142535534212e+01 8.8788971223747382e+00 0 0 0
343 1 1.1301982128962984e+00 6.0612077140183578e+00 8.8896074872200188e+00 0 0 0
927 2 8.4416433549106369e+00 1.9146520430699475e+01 7.0581498245636887e-01 0 0 0
465 2 9.7793417122268111e-01 7.8633476044399924e+00 9.2509458197351933e+00 0 0 0
466 1 5.1319838515068268e+00 8.9009429734609089e+00 7.1964145345171877e+00 0 0 0
467 2 5.4063134364764212e+00 8.3003183314621847e+00 6.5154188165197819e+00 0 0 0
468 2 4.2306964040453030e+00 8.6566539667708877e+00 7.3364382855776133e+00 0 0 0
469 1 9.1907200913941534e+00 9.6149797403623722e+00 7.2335781716631953e+00 0 0 0
470 2 8.8316155619707182e+00 1.0511275686722033e+01 7.1489058324800734e+00 0 0 0
471 2 8.5905471184029185e+00 9.2040312084148059e+00 7.8499657498213438e+00 0 0 0
573 2 4.9280636054601273e-01 1.5607549063957860e+01 9.6987209172135458e+00 0 0 0
487 1 6.8839101189250620e+00 1.2811736145667131e+01 8.8679813177608171e+00 0 0 0
488 2 7.4335759922424138e+00 1.2789486632751821e+01 8.0468265253150086e+00 0 0 0
489 2 5.9502300855888484e+00 1.2635450255905099e+01 8.6249466741415937e+00 0 0 0
499 1 7.2850009329151302e+00 8.4733973710943307e+00 9.3271272042843822e+00 0 0 0
500 2 7.5986873637164525e+00 9.1995497007958456e+00 9.9395791384635235e+00 0 0 0
501 2 6.4724523091040389e+00 8.8255878510583017e+00 8.9501596132086423e+00 0 0 0
253 1 9.6760829778888588e+00 1.6384828233117744e+01 3.6997659039365388e-01 0 0 0
62 2 9.1599371405206753e+00 4.7132091772844991e+00 6.4077609983458101e+00 0 0 0
541 1 2.4084812308586008e+00 1.5536320015900364e+01 7.0778993118315476e+00 0 0 0
542 2 1.6958890374023183e+00 1.5357729850769989e+01 7.6969224996978642e+00 0 0 0
543 2 2.2261013375762544e+00 1.4893506780182452e+01 6.3574076490190752e+00 0 0 0
553 1 4.4872010279156793e+00 1.8964596577831163e+01 8.9369829334622732e+00 0 0 0
554 2 5.4278503781661378e+00 1.9141961051960422e+01 8.7554601076941712e+00 0 0 0
555 2 4.0424499727796590e+00 1.8808734725828817e+01 8.0397613683246334e+00 0 0 0
450 2 4.0304074825803164e+00 1.1191068711536255e+01 9.6509091037181260e+00 0 0 0
143 2 4.0205447326319064e+00 9.1194103040109304e+00 5.3959103012186760e-01 0 0 0
560 2 1.3920180276329468e+00 1.8771094584081915e+01 7.9403700586515624e+00 0 0 0
561 2 9.0397266159545242e-01 1.8295720121498135e+01 9.3154014922865596e+00 0 0 0
571 1 4.1086741831409979e-01 1.4976021667951274e+01 8.9164170015313449e+00 0 0 0
574 1 5.1713129323267539e+00 1.5669255408421325e+01 7.1324660197189651e+00 0 0 0
575 2 5.4151637635897787e+00 1.5545437916441283e+01 8.0382174292787347e+00 0 0 0
576 2 4.1947781296005306e+00 1.5627526306961929e+01 7.2517412161084085e+00 0 0 0
59 2 9.1336925938674831e+00 1.2541396652405716e+00 4.2237342280467827e+00 0 0 0
578 2 8.7199227628309401e+00 1.7222797404238118e+01 6.8959634992280670e+00 0 0 0
579 2 8.4334565826514414e+00 1.6031803743015999e+01 7.8738770504251230e+00 0 0 0
463 1 8.0717560912285213e-01 8.7998885435536174e+00 9.1369173900181782e+00 0 0 0
595 1 7.1206757959604268e+00 1.9295881924975255e+01 8.8024554669061796e+00 0 0 0
596 2 7.6700432581135258e+00 3.4611033203260977e-01 9.0010997627740714e+00 0 0 0
597 2 7.4244778996417917e+00 1.8779293655842743e+01 9.5406335383236929e+00 0 0 0
607 1 7.3203265383050100e+00 1.5458811674839342e+01 9.1346430636836011e+00 0 0 0
608 2 7.2912628372268644e+00 1.4476097290868717e+01 9.1360415045864212e+00 0 0 0
675 2 1.8588089055287635e+00 5.6510034915480256e+00 5.1797596030225668e-01 0 0 0
557 2 4.0160444409948255e+00 1.6333361553432319e+01 1.0375353204484911e+01 0 0 0
889 1 2.4392456401197657e+00 1.8510781118026340e+01 3.8285496312420864e-01 0 0 1
437 2 3.8391865416968245e+00 8.9287481540887761e+00 9.9347416078185127e+00 0 0 0
1 1 2.7581675700591144e+00 2.6169598344639526e+00 3.0407376431771177e-01 0 0 0
436 1 3.8695800681683190e+00 7.8829047798585963e+00 9.9447566855581009e+00 0 0 0
2 2 3.7000016204491262e+00 2.6757377063835683e+00 6.9490718743533297e-01 0 0 0
145 1 9.2043459364323645e+00 9.1590655704142687e+00 2.3743312700826347e-01 0 0 0
479 2 7.5521707397209790e+00 1.1486507690202778e+01 9.9493383308967900e+00 0 0 0
335 2 1.0058918423900716e+00 3.0005064524075391e+00 9.8296369607181617e+00 0 0 0
448 1 3.8346045964227415e+00 1.0551441928832517e+01 1.0383670852877103e+01 0 0 0
36 2 5.7763376900549321e+00 3.6264946631115427e+00 2.1389622668220262e-01 0 0 1
486 2 9.6724983261759423e+00 1.0495899327832189e+01 1.0390179378380406e+01 0 0 0
37 1 9.4997671848091656e+00 2.6786652934025699e+00 2.3834482363014331e-01 0 0 0
817 1 8.8980497186101140e+00 1.2075015403915861e+01 4.1502895705421572e-01 0 0 1
782 2 2.2155532167415233e+00 1.1074298223275653e+01 2.0012116745699057e+01 0 0 0
798 2 9.5778142828999986e+00 7.4394370567966366e+00 1.7605433285205940e+01 0 0 0
901 1 9.0674022556704088e+00 1.6142171177597326e+01 1.3812259919695343e+01 0 0 0
336 2 4.4675199367475560e-01 3.6867975330029568e+00 1.1169477396646093e+01 0 0 0
39 2 8.9519674845548920e+00 2.1283553135929876e+00 2.0032239357862498e+01 0 0 0
674 2 2.6606930071212820e+00 4.5688624051739311e+00 2.0378366563144823e+01 0 0 0
331 1 5.9479646493001761e+00 4.7429679854018119e+00 1.2629588322627905e+01 0 0 0
332 2 6.6975394332929783e+00 4.6696822239821918e+00 1.1998071423285104e+01 0 0 0
333 2 5.2713153765425345e+00 4.5793145061292524e+00 1.1927529840779188e+01 0 0 0
673 1 2.5355531075638948e+00 5.5105079025262071e+00 2.0319186079935996e+01 0 0 0
478 1 7.7960684624863417e+00 1.0769136418022693e+01 1.0605066103130605e+01 0 0 0
219 2 2.5364429195987812e+00 1.6940040858873353e+01 2.0442266274526297e+01 0 0 -1
346 1 2.0488026758346587e+00 1.0641138615939421e+00 1.2271343445649991e+01 0 0 0
347 2 2.8042211098103254e+00 1.1033902890015272e+00 1.1595454652657470e+01 0 0 0
348 2 2.1529550679823739e+00 1.9459931818499492e+00 1.2700395253542171e+01 0 0 0
349 1 2.6914958669769082e+00 5.6146129594512280e+00 1.3567519526697881e+01 0 0 0
350 2 2.4732714868617562e+00 6.0088931998276687e+00 1.2717396518918228e+01 0 0 0
351 2 2.5911490656694687e+00 4.5950996195687521e+00 1.3459590008860204e+01 0 0 0
352 1 6.2321818557532334e+00 8.1268131024421097e-01 1.2267650853003390e+01 0 0 0
353 2 7.1364720544584381e+00 1.0099871006952070e+00 1.2192998758909894e+01 0 0 0
354 2 5.9934840972737096e+00 1.9789400201576367e+01 1.2596105521714120e+01 0 0 0
897 2 1.0738574828034133e+00 1.6192676917071189e+01 1.6537674991634201e+01 0 0 0
382 1 9.0020387334210934e+00 1.0721837032620225e+00 1.1911613639733371e+01 0 0 0
383 2 9.2303472164437608e+00 3.7718205447214664e-01 1.2584989747254136e+01 0 0 0
788 2 1.1028496112695854e-01 8.8812987238455285e+00 1.5180827470655112e+01 1 0 0
385 1 8.8598719030820483e+00 5.5315187569556796e+00 1.3316024381734566e+01 0 0 0
386 2 8.9957395569219791e+00 4.5968972926085980e+00 1.3533542341889458e+01 0 0 0
387 2 8.2335132987210713e+00 5.6855272479658003e+00 1.4025988846921393e+01 0 0 0
552 2 1.8854887872007475e+00 1.7193527213501163e+01 1.0914826258496788e+01 0 0 0
787 1 1.0341034069438897e+00 8.8452576361318958e+00 1.5575813809574091e+01 0 0 0
439 1 5.4755888733993574e+00 1.1530134342002034e+01 1.2315998567874846e+01 0 0 0
440 2 5.5795183310797221e+00 1.2516056982782461e+01 1.2312571706200130e+01 0 0 0
441 2 4.8068514266846858e+00 1.1264426070076794e+01 1.1649847807762839e+01 0 0 0
775 1 4.8096412147210721e-01 1.2632819565774614e+01 1.5595519212894036e+01 0 0 0
454 1 1.8598389595632583e+00 7.8552467495276428e+00 1.1855670319526610e+01 0 0 0
455 2 2.3327331870757853e+00 7.8676429552262546e+00 1.0983058440872334e+01 0 0 0
456 2 2.3373879166874580e+00 8.4427573524537305e+00 1.2464204421905654e+01 0 0 0
457 1 2.5492205486227131e+00 1.2161438495403040e+01 1.3794910660360788e+01 0 0 0
458 2 3.3603541704177244e+00 1.2343912255261911e+01 1.4290855834718947e+01 0 0 0
459 2 1.7866992994250483e+00 1.2295964932143368e+01 1.4365141260249649e+01 0 0 0
460 1 5.8025720406532777e+00 7.5021381623634564e+00 1.2254484265388282e+01 0 0 0
461 2 5.8953418245790470e+00 6.5667624343831106e+00 1.2523514230424059e+01 0 0 0
462 2 6.7286129150820360e+00 7.6642079302646478e+00 1.1821719676327309e+01 0 0 0
599 2 9.1375109586312018e+00 1.4401934996904206e+01 1.1231970711393590e+01 0 0 0
480 2 7.2930098596806694e+00 1.0849944333262453e+01 1.1424038599859971e+01 0 0 0
384 2 9.7598824544392961e+00 1.2196175661577904e+00 1.1319065075778855e+01 0 0 0
490 1 8.4234205577921024e+00 7.5572034573422009e+00 1.1904655041143640e+01 0 0 0
491 2 8.2863629772334910e+00 6.7063860859909825e+00 1.2342667566818594e+01 0 0 0
492 2 8.6481074275554093e+00 8.1736489394343899e+00 1.2584704303118354e+01 0 0 0
493 1 8.9706956981772272e+00 1.2097714357838765e+01 1.3541112401621774e+01 0 0 0
494 2 8.4186345915038316e+00 1.2366272081024865e+01 1.4334972011339318e+01 0 0 0
495 2 8.8692703879281858e+00 1.2843409794675493e+01 1.2924375571242656e+01 0 0 0
545 2 3.3191914597750229e+00 1.4484406042553548e+01 1.0735744517934540e+01 0 0 0
586 1 7.7465701263454694e+00 1.7580045769303943e+01 1.0663382131395501e+01 0 0 0
426 2 3.6150913517831140e-01 7.6572024252120219e-01 1.1867812543422090e+01 0 0 0
546 2 4.8696955819444243e+00 1.4399535503475288e+01 1.0780066605802883e+01 0 0 0
449 2 2.8445036183030665e+00 1.0561242167089343e+01 1.0592542363611789e+01 0 0 0
710 2 9.3200619841399615e+00 4.5156461675658894e+00 2.0341578350311444e+01 0 0 0
547 1 5.7231461425815695e+00 1.8020860692673729e+01 1.2589374527274410e+01 0 0 0
548 2 5.1701212955874203e+00 1.7791371543243500e+01 1.1845848019928457e+01 0 0 0
549 2 5.5862141901105469e+00 1.7243502072514957e+01 1.3211914638911159e+01 0 0 0
876 2 3.5322558662573617e-01 1.7667339612478429e+01 1.8141902676029829e+01 0 0 0
562 1 2.0028951900805141e+00 1.4453346014848966e+01 1.2045753904883643e+01 0 0 0
563 2 1.0441212805981297e+00 1.4617058656576845e+01 1.2068085313207474e+01 0 0 0
564 2 2.3240384436678618e+00 1.3667627241101146e+01 1.2547475298355456e+01 0 0 0
565 1 2.2828576517696222e+00 1.8900488675806187e+01 1.3718153729183658e+01 0 0 0
566 2 2.0361418099317525e+00 1.9707972915545234e+01 1.3182384601721882e+01 0 0 0
567 2 3.1740964230454325e+00 1.9077489295704424e+01 1.4013567334044028e+01 0 0 0
568 1 5.7543867937621798e+00 1.4235169090618657e+01 1.2126727488818922e+01 0 0 0
569 2 6.7919612499305231e+00 1.4315972865126279e+01 1.2137066430451656e+01 0 0 0
570 2 5.5167249695596432e+00 1.4696367908642129e+01 1.2924331785557433e+01 0 0 0
341 2 2.6735129522001229e+00 4.0738027700270232e+00 1.0669446625781523e+01 0 0 0
442 1 1.2201585416324348e+00 1.0732040592749037e+01 1.0890266603717409e+01 0 0 0
588 2 7.1019901993367522e+00 1.7716506621752394e+01 1.1414933844261377e+01 0 0 0
598 1 8.4908970803930774e+00 1.4349504327676485e+01 1.1959854924435424e+01 0 0 0
749 2 4.7712127329292586e-01 7.3668436381343327e-01 1.9358271648234300e+01 0 0 0
600 2 8.7004745080995782e+00 1.5156523632933466e+01 1.2579330950326586e+01 0 0 0
601 1 9.1503951405864061e+00 1.8862594897854642e+01 1.4017826189206303e+01 0 0 0
603 2 8.3849372851213406e+00 1.9025509186766744e+01 1.4623340150317874e+01 0 0 0
551 2 4.4739482239103295e-01 1.7169390578228953e+01 1.1658082373671949e+01 0 0 0
550 1 9.5249474710415527e-01 1.6965749332282890e+01 1.0814896230908955e+01 0 0 0
649 1 2.4733711718079272e+00 3.2067760248083932e+00 1.3732579263472344e+01 0 0 0
650 2 3.3956419152693438e+00 2.9180479486460231e+00 1.3938664329680423e+01 0 0 0
651 2 2.0719014346803695e+00 2.8538904603996293e+00 1.4610062980363981e+01 0 0 0
652 1 3.9327689734418749e+00 1.5524873221359161e+00 1.7121346342898988e+01 0 0 0
653 2 3.9459316267177198e+00 2.4538829976981735e+00 1.6820684950551929e+01 0 0 0
654 2 4.5295430678614714e+00 1.4421538591814116e+00 1.7932148499740340e+01 0 0 0
655 1 5.5584659142091892e+00 4.5338458923457727e+00 1.9032769785108567e+01 0 0 0
656 2 5.4354248079099072e+00 5.4746510327637994e+00 1.9338133416165441e+01 0 0 0
657 2 6.3911591820297744e+00 4.4674494255909885e+00 1.8539146958858385e+01 0 0 0
658 1 1.1156175355504530e+00 4.3679963025402779e+00 1.7406128232642921e+01 0 0 0
659 2 1.0351021470687818e+00 3.4994479009473545e+00 1.6908613233537327e+01 0 0 0
660 2 1.1058924436110826e+00 4.9559351461966497e+00 1.6602475387706814e+01 0 0 0
661 1 4.3897460986145473e+00 6.5424539472375525e+00 1.5405059226911705e+01 0 0 0
662 2 4.2021357489405728e+00 5.7139340894009258e+00 1.5973050579878736e+01 0 0 0
663 2 4.0126452701460380e+00 6.2465204812113120e+00 1.4473658633143728e+01 0 0 0
664 1 3.8616808960953839e+00 4.3349055893958344e+00 1.6863301331522983e+01 0 0 0
665 2 2.8715959803903437e+00 4.4512809219823479e+00 1.7062141002958263e+01 0 0 0
666 2 4.3430467357352223e+00 4.5145763176955933e+00 1.7701632500186989e+01 0 0 0
667 1 7.0427828467196996e-01 5.9335408602132143e+00 1.5159464857005567e+01 0 0 0
668 2 7.2788034411140001e-01 6.8809905090607515e+00 1.5388869392060936e+01 0 0 0
669 2 1.5751568717228850e+00 5.8050757561168460e+00 1.4629618760534658e+01 0 0 0
670 1 2.1492332075636105e+00 6.7916716631232221e-01 1.9129239120973018e+01 0 0 0
671 2 2.5229511058723708e+00 1.5225164557901558e+00 1.9472370927713687e+01 0 0 0
672 2 2.5782009607136467e+00 7.4017321854521922e-01 1.8276643446356886e+01 0 0 0
676 1 5.7718226171733820e+00 9.4475075175389345e-01 1.9070186623153486e+01 0 0 0
677 2 5.9315614097623097e+00 1.5965494114457319e+00 1.9796306105891183e+01 0 0 0
678 2 6.6396248344888562e+00 9.2705391561044403e-01 1.8585323746192355e+01 0 0 0
679 1 7.5651396059344356e-01 2.3545962196214143e+00 1.5788933475356997e+01 0 0 0
328 1 4.1184760427412304e+00 1.1964890930327956e+00 1.0630264036155101e+01 0 0 0
681 2 9.7543581848524819e-01 1.4042281852063705e+00 1.5895065413747817e+01 0 0 0
682 1 5.1896644736370954e+00 2.5834934881830116e+00 1.4159636215229293e+01 0 0 0
683 2 5.6582335180851970e+00 3.4218958575439271e+00 1.3733104716067697e+01 0 0 0
684 2 5.4900832578254226e+00 1.8413013843555943e+00 1.3591539668776418e+01 0 0 0
685 1 9.0518506559846728e+00 2.9236332037463328e+00 1.4011891265463710e+01 0 0 0
687 2 9.0795925256725667e+00 2.3427372102602479e+00 1.3224818576171197e+01 0 0 0
694 1 7.7182511748650144e+00 4.5812699782850910e+00 1.7281201659235421e+01 0 0 0
695 2 8.6687345868771928e+00 4.5926063728677828e+00 1.7527476938040017e+01 0 0 0
696 2 7.4999864033764601e+00 3.6811740185338557e+00 1.6986577405122961e+01 0 0 0
703 1 7.0944360457569848e+00 6.3968875865632597e+00 1.5216742457812675e+01 0 0 0
704 2 7.1319386768817461e+00 5.7461272279742834e+00 1.5910359093331623e+01 0 0 0
705 2 6.1705159476140450e+00 6.5187181997894772e+00 1.5041167554489340e+01 0 0 0
706 1 8.4057397206711109e+00 1.2370974004891695e+00 1.8750886184475554e+01 0 0 0
781 1 2.6418973247532826e+00 1.1939572766511558e+01 2.0282252650270163e+01 0 0 0
708 2 8.7303866505163334e+00 3.5765228958198414e-01 1.9169302006503177e+01 0 0 0
715 1 7.3631667623779320e+00 2.2851446876940607e+00 1.5774131790722306e+01 0 0 0