LAMMPS data file via write_data, version 15 Apr 2020, timestep = 901000

2016 atoms
2 atom types

0.0000000000000000e+00 1.8270340800000000e+01 xlo xhi
-1.2019605730010490e+00 4.5672894578996861e+01 ylo yhi
0.0000000000000000e+00 1.8973846500000001e+01 zlo zhi
-1.7039360592064311e-03 -6.7729021899999999e+00 -8.7426862899999997e-04 xy xz yz

Masses

1 16
2 2

Atoms # atomic

838 1 4.0050411727746020e+00 -2.5380568054989650e-01 8.7176460465114634e+00 1 0 -3
498 2 -8.5318802349911738e-01 3.4371108852869732e+00 4.5851945049350373e+00 -2 0 2
18 2 7.8459462493812087e+00 -9.1315927487100124e-01 7.8111919547639097e+00 0 0 3
826 1 -1.2952389692241884e-01 7.6578862365342530e+00 1.8806454823629885e+01 0 0 3
326 2 -2.8682402977869579e+00 5.3727865321622046e+00 1.0959593711199888e+01 2 0 3
151 1 6.5626741255232046e-01 3.4683915480486585e+00 7.5223236071471025e+00 2 0 1
649 1 -1.4700847278762581e+00 -3.8353537462957354e-01 7.3039542820067451e+00 0 0 -3
336 2 1.5060882286690260e+00 -4.0653125127900980e-02 1.3607909407302623e+01 -2 0 2
647 2 5.4727662236181995e-01 1.4154947154079247e+00 1.6301321948643722e+01 -2 0 2
600 2 2.9547572096429660e+00 3.4652540593755257e+00 5.4995828474717778e-01 -1 0 4
546 2 2.3244247114500904e-01 -5.2384251992914677e-01 6.1939886654686305e+00 0 0 2
544 1 1.1629246595352929e+00 -7.5702636301347193e-01 5.9921550486772608e+00 0 0 2
403 1 -1.1247509795724682e+00 -4.2388653758812245e-01 3.6908448161389771e+00 1 0 0
724 1 -1.5571489180231675e+00 4.7450633657091874e+00 1.7385464187364189e+01 2 0 3
562 1 6.3360082351145071e+00 4.2968274425604065e+00 1.3044565721965421e+01 -2 0 0
89 2 1.0161481890440900e+01 6.5227312085387257e-01 1.3411168148871916e+01 -4 0 -1
228 2 1.2105035113534537e+01 2.9239593170394915e+00 1.2451721773532949e+01 1 0 0
879 2 6.6613336581443363e+00 2.7207591499821491e+00 1.3609932677726977e+01 0 0 2
226 1 1.2549871102918329e+01 2.2940621299773256e+00 1.1843239571778707e+01 1 0 0
52 1 7.2271583984984868e+00 4.4205160037947424e+00 1.8145787130368216e+01 0 0 3
493 1 5.8325709682924209e-01 -1.6416282494068701e-01 1.8786512166342110e+01 0 0 1
82 1 7.1663484453035329e+00 -3.5401578585760396e-01 1.6191733664950686e+01 0 0 -2
887 2 1.1609909747351555e+01 8.4085672206167512e+00 3.8106904282647297e-01 0 0 3
33 2 8.8623227023572770e+00 8.2577712998311181e-01 3.9253855153162087e-01 1 0 0
802 1 1.4515929945339806e+01 -6.6346094841824643e-01 4.3896024786055001e+00 -1 0 1
804 2 1.4394154772639547e+01 -1.0830558185192818e+00 5.2437002891321116e+00 -1 0 1
141 2 6.0764479087301115e+00 8.3556956919514924e-02 4.0723314971641322e+00 -4 0 3
656 2 7.7423425018756395e+00 6.9611642262212534e+00 1.2222364678988553e+01 3 0 2
638 2 5.2008778480670701e+00 1.8840675450364062e+00 1.7890289570103885e+01 2 0 3
950 2 1.8095649752743068e+01 6.3182602033387747e-01 1.7139393224903204e-01 2 0 4
350 2 4.0396447985487782e+00 8.3160623298670870e+00 6.7820246975881524e+00 0 0 2
103 1 1.0645291985570109e+01 -8.3000926321904078e-01 2.2153881897567134e+00 0 0 2
67 1 9.8778069345932238e+00 -5.5113303125136004e-01 1.8416068655468052e+01 0 0 3
969 2 7.5177418254043307e+00 -9.4061940698319746e-01 1.2287360229622058e+01 0 0 4
379 1 1.7042333492996926e+00 1.2899738639798053e-01 9.8895803529115991e+00 2 0 3
327 2 -3.0981485883687840e+00 6.7687746628227412e+00 1.1557719471325600e+01 2 0 3
651 2 -1.1881635463637896e+00 -7.1049279023284417e-01 8.1597037658953546e+00 0 0 -3
637 1 5.3450984058439088e+00 1.3798019674714768e+00 1.8767173234495530e+01 2 0 3
217 1 1.0713512919432404e+01 -4.5389085192077572e-01 6.5305743767129281e+00 -1 0 3
257 2 5.4601608203291105e+00 8.8577822705604419e+00 1.5159086763473265e+01 2 0 2
471 2 1.2994401675288918e+01 -5.9958478525737879e-02 1.3750766257581912e+01 -3 0 1
1005 2 8.1254086954094333e+00 9.8195989157465515e+00 2.4258922488784149e+00 3 0 0
610 1 -2.2129452147844724e+00 9.5359021646810440e+00 9.7124927839364599e+00 1 0 2
321 2 5.8145217018771778e+00 2.0269886875833505e+00 7.0608968213450183e+00 -1 0 1
197 2 1.0918137604464562e+01 8.3713753971744271e+00 5.5649073149720367e+00 -2 0 -2
693 2 -2.4299291466052164e-01 1.1613150658337399e+00 1.3952365430773272e+01 -1 0 1
227 2 1.3059585215050950e+01 1.6299883984877312e+00 1.2338078032547015e+01 1 0 0
639 2 1.1222878097987936e+01 1.2334742628730799e+00 4.0518431082826767e-02 1 0 4
335 2 3.1160804112878857e+00 -3.2343208240638521e-01 1.3873602305494950e+01 -2 0 2
129 2 1.7582342466431786e+00 5.3264114233587296e+00 1.2643178780919804e+00 3 0 1
954 2 6.7962586342440288e+00 2.7268819147990602e+00 9.1622323222752988e-01 -1 0 4
500 2 -6.8450290151999527e-01 4.3205660615912089e+00 1.1806251247862951e+01 -1 0 2
893 2 -1.0395042805161472e+00 9.5453102957001379e-02 1.2226697274062115e+01 -1 0 -1
24 2 1.5264419832514900e+01 8.6302731950295648e+00 8.6201534916107969e-01 2 0 5
538 1 -1.8554144518576345e+00 7.4290985703943395e+00 1.5245918427297761e+01 2 0 5
318 2 1.4860238926103460e+01 8.5106242299722155e+00 3.8240846192472402e+00 1 0 -2
1084 1 2.1233151998876205e+00 5.5802667153576717e+00 1.0890913998760919e+01 0 0 0
65 2 8.6442665300261581e+00 1.6451994091968607e+00 8.2369625927716097e+00 -2 0 2
810 2 1.1928739280615661e+01 1.1864639111035289e+00 1.6648752282661661e+01 0 0 1
44 2 1.6688511503195880e+00 -1.0184486492935985e+00 1.5333070052011230e+01 3 0 3
791 2 5.1547428424902213e+00 -1.6667230543320355e-01 1.6624441636166495e+01 1 0 2
994 1 1.3577420900135374e+01 -2.6451643290649685e-01 9.0772169375087906e+00 2 0 2
1531 1 4.8211541828269739e+00 1.0112209570474928e+01 1.6582494887001729e+01 -1 0 -1
616 1 9.9972894621880179e+00 7.0208427400810915e+00 2.8693027143674135e+00 -1 0 1
423 2 6.8815744403618861e-01 7.1786538310260646e+00 1.2925328168288312e+01 -5 0 -3
989 2 1.1585770717337065e+01 1.0314035282457823e+00 6.8358084381052366e+00 3 0 2
605 2 7.7634740339565811e+00 7.1173394126826697e+00 8.2917578959939533e+00 -2 0 3
202 1 -6.5756452727152248e-01 9.6749259369606673e+00 2.4610708645077666e+00 0 0 5
646 1 -3.5630520238923769e-01 1.6466971707914375e+00 1.6730761035426582e+01 -2 0 2
840 2 4.4659458921170403e+00 -6.1115731569289167e-01 9.5006660607071076e+00 1 0 -3
380 2 1.2949401408944952e+00 -6.0674945788461487e-01 1.0394807474979638e+01 2 0 3
88 1 9.4100897366540526e+00 1.2409338252553974e+00 1.3093229225140545e+01 -4 0 -1
1586 2 2.5526312051966178e+00 9.2983601770224684e+00 3.7337310324355384e+00 0 0 1
949 1 6.3746373129732925e-01 1.1920977801511996e+00 4.1200972073176517e-01 3 0 4
862 1 4.3370688859042783e+00 6.7500038553596973e+00 4.2121874142983469e+00 -4 0 3
1031 2 9.2321417905098802e+00 7.7154979420392102e+00 1.8875496824968462e+01 2 1 4
819 2 1.6076107955839383e+01 6.4021190425739496e+00 1.9199253974065309e+00 -1 0 -1
470 2 -4.1524405085226022e+00 -3.4641938765826163e-01 1.2662051297736356e+01 -1 0 1
504 2 9.3363947680605257e+00 1.0299832067559215e+01 1.2022660554404908e+01 0 0 4
68 2 8.9845581349376964e+00 -1.7089768723899157e-01 1.8369214194808308e+01 0 0 3
863 2 3.5139969686070680e+00 6.2838568363169012e+00 4.1871800848144556e+00 -4 0 3
127 1 1.1063467664108240e+00 6.1526290450045407e+00 1.2854252278245295e+00 3 0 1
219 2 9.6902806825035395e+00 -3.9977008917735224e-01 6.5385172856490987e+00 -1 0 3
951 2 4.6184862373557323e-01 1.4975388293804914e+00 1.3223652361582410e+00 3 0 4
467 2 1.0278129436755702e+01 6.5055530535661843e+00 6.7115221998843957e+00 4 0 2
168 2 1.5530271790514782e+01 7.9547653583315525e-01 6.7659654818762780e+00 1 0 2
110 2 -3.1465016072279921e+00 2.8875964853542415e+00 1.5146204511752016e+01 -3 0 3
83 2 6.9142776152947354e+00 -7.3228345924181615e-01 1.5336843294991528e+01 0 0 -2
1006 1 -3.2903507426715666e+00 8.2454230758078513e+00 1.2648845060968462e+01 0 0 1
1083 2 2.4973713849283099e+00 4.3398692405620984e+00 4.6157065157112829e+00 0 0 0
860 2 4.6717990473588866e-01 8.2146956798313173e+00 8.5241515125782215e+00 1 0 4
440 2 3.9448542933061113e+00 1.3209854643019914e+00 1.2055000930935751e+01 3 0 2
269 2 2.7038196601434601e+00 2.7725964210758121e+00 1.4466777239601573e+01 2 0 1
238 1 5.1275022559392580e+00 2.9529974815011260e+00 1.6573653859581864e+01 -1 0 1
131 2 1.0968673338546642e+01 -1.0760396186242382e+00 1.3173741552944964e+01 -3 0 -2
770 2 9.4955984413714134e+00 6.5201440631820313e+00 1.0574804146452468e+01 2 0 4
346 1 8.9910383926757067e+00 9.6634391412413425e+00 1.0276158923635450e+01 -1 0 3
157 1 9.3790211662237759e+00 8.0582823811296524e+00 8.2385109416437707e+00 1 0 0
591 2 -4.7720558008863669e+00 1.9945679274505976e+00 1.8449655604592650e+01 -3 0 -1
489 2 8.0841019132418133e+00 7.4483752000897265e+00 5.1163770974681269e+00 -6 0 -5
833 2 4.8343920341512536e+00 9.9780624203785706e-01 1.1685967083992834e+00 0 0 4
948 2 1.7012825832638118e+01 4.2316824860297553e+00 7.6864178066517974e-01 0 0 1
743 2 3.9258900229470179e+00 3.0412186168353657e+00 7.9978933283059641e+00 1 0 -1
1037 2 1.5069886527578586e+01 3.3590565176244835e+00 7.3897114377894964e+00 -1 0 0
683 2 5.5690006000846086e+00 4.7717126836461432e-01 1.3315644283615747e+01 3 0 -1
468 2 1.1079199132408732e+01 5.1314286037188390e+00 6.7624845415798012e+00 4 0 2
163 1 8.7514160673554535e+00 3.3394966317598662e+00 6.5750158261726765e+00 -3 0 0
512 2 1.3079150918652505e+01 8.6397562453402017e+00 8.1225633389802852e+00 1 0 4
231 2 6.7944419106356913e+00 4.8409965886192401e+00 8.9529714885011025e+00 1 0 2
355 1 -4.9505431142832688e+00 -2.1772559670808966e-01 1.6841189001804356e+01 -1 0 1
239 2 4.1999331695064246e+00 3.2316124433493441e+00 1.6450154650757373e+01 -1 0 1
305 2 7.9853147397363156e+00 -3.7396656465638445e-01 3.2314851686912607e+00 1 0 1
725 2 -2.2282299099536722e+00 4.2782376676624843e+00 1.6740559663464982e+01 2 0 3
942 2 1.0901043981517063e+01 9.9871319491478268e+00 1.7453963338341953e+01 2 0 5
490 1 7.0466070587850833e+00 8.8128700260504367e+00 5.1408081827660856e+00 1 0 4
252 2 9.7131042118141213e+00 1.9486137052927002e+00 1.6156141380101346e+01 2 0 4
469 1 -4.5027435235281956e+00 3.0897810455263075e-01 1.3269757557497929e+01 -1 0 1
55 1 1.2095363590939481e+01 3.0475322391459301e+00 9.4215081672889607e+00 1 0 1
769 1 9.2108093810670653e+00 7.1681349218523938e+00 1.1220216847453303e+01 2 0 4
864 2 4.0839433782482208e+00 7.6165075746694839e+00 4.5625664183699151e+00 -4 0 3
853 1 -2.1984437649059827e+00 -4.8586540866456773e-01 1.6196032817760340e+01 1 0 0
407 2 3.0284430011076191e+00 4.9221149503498074e+00 9.4090199106261778e+00 -1 0 2
1671 2 1.2013593065986413e+01 4.5079404295811427e+00 4.3105189353939641e+00 0 0 1
680 2 1.8970720960367817e+00 4.7085711318290535e+00 1.7286824821621359e+01 2 0 3
828 2 5.9512242654917431e+00 7.2569019684065967e+00 4.0105210858780566e-01 0 0 4
845 2 9.7505900124420819e-01 6.3952421245290774e+00 1.5372665199136238e+01 0 0 1
109 1 -3.4948886231893614e+00 3.4330020385125506e+00 1.5923684581399778e+01 -3 0 3
839 2 3.1437603050402805e+00 -2.3227774008680813e-02 8.9393081851955465e+00 1 0 -3
581 2 1.3468274627644307e+01 1.6844927193225079e-01 1.8626895671452481e-01 -2 0 3
766 1 -2.9174133299998850e-02 3.6505604288533169e+00 1.4527029714235182e+01 -1 0 1
478 1 6.1766535267421414e+00 5.8303587150446967e+00 5.9762510491420562e+00 4 0 2
304 1 7.8094676817086546e+00 4.4842366042956461e-01 3.7209964830380216e+00 1 0 1
734 2 1.6265439960774484e+00 -2.6970136764765640e-01 8.9759094495141756e-01 1 0 4
195 2 1.1798476616497959e+01 3.2858635419693609e+00 1.6378975266264792e+01 -1 0 4
487 1 8.8030381127522599e+00 6.7940104672757604e+00 5.1041589540139105e+00 -5 0 -5
593 2 1.2289091378197050e+01 6.9944361405388022e+00 9.0716583049240835e+00 -3 0 -1
325 1 -3.0174682058039366e+00 6.2935817350720633e+00 1.0718620826496633e+01 2 0 3
1082 2 2.8573185182311658e+00 2.8015731714127607e+00 4.6286705956725358e+00 0 0 0
580 1 1.4240639142426124e+01 -2.2012686426519734e-01 6.1151099817977828e-01 -2 0 3
31 1 9.6081186347311149e+00 1.2485632030778788e+00 8.4745571129847908e-01 1 0 0
111 2 -3.8659277640038447e+00 4.1982972220796295e+00 1.5461586192462688e+01 -3 0 3
139 1 5.2240370459213965e+00 -3.7683340412440691e-01 4.3236796786917537e+00 -4 0 3
311 2 -3.6431653289935406e-01 7.1090085613564646e+00 1.0431330551684054e+01 1 0 3
108 2 -3.2435802383316501e+00 5.6892837209962996e+00 1.3921145963930828e+01 1 0 1
736 1 1.2825914532333812e+01 2.5338181873401120e+00 2.0138771436422989e+00 -2 0 1
780 2 2.9330677583617266e+00 1.1789106722240810e+00 1.6184883679449335e+01 -1 0 2
962 2 7.9249148995756986e+00 8.2234642065915136e+00 7.8718633600180465e-01 1 0 1
188 2 4.5039494486681626e+00 5.4740844536212050e+00 1.3229455311944347e+00 1 0 2
439 1 3.3431576400768401e+00 1.9286834355063460e+00 1.1526491138548788e+01 3 0 2
551 2 6.1228487410245309e+00 5.2513013889487823e+00 1.5440394964048965e+01 -4 0 -1
612 2 -1.6062610551927416e+00 1.0057450908709406e+01 9.1509863143824024e+00 1 0 2
373 1 1.5493605903037253e+01 1.9394095776455629e+00 1.8858899108828009e+00 0 0 1
104 2 1.1338631452606718e+01 -3.6371783090866283e-01 2.7059445972195495e+00 0 0 2
130 1 1.1130998045572492e+01 -4.7464882655425378e-01 1.3945464121102646e+01 -3 0 -2
787 1 7.4669238533653814e+00 5.1446835437748639e+00 3.2224718014347329e+00 2 0 -1
6 2 6.5377479160632568e-01 6.5982279677517539e+00 1.7780519380591635e+01 1 0 -1
290 2 9.6457068039572107e+00 2.7080196084925916e+00 3.4033486506327533e+00 1 0 1
650 2 -1.6488960286259333e+00 -1.1225703739962472e+00 6.7058827259573768e+00 0 0 -3
815 2 1.3641400028472155e+01 -1.0519826016309384e+00 7.3108782177389759e+00 -2 0 -2
767 2 9.0432434751738011e-01 3.8956495709461176e+00 1.4503029499762654e+01 -1 0 1
1998 2 1.2200447613999692e+01 1.9880324990242961e+00 8.0206956837668315e+00 3 0 2
351 2 3.9130039736117488e+00 9.4641322740516465e+00 5.7721954009033789e+00 0 0 3
164 2 9.3998110939913673e+00 3.9243852236549497e+00 7.0132102361471338e+00 -3 0 0
556 1 2.9366575914520876e+00 1.0454070859290749e+01 1.2199704261661189e+01 1 0 7
851 2 -1.6543282940730790e+00 7.3898341305600148e+00 5.1811257313163148e+00 -1 0 2
484 1 1.2147946258880275e+01 4.3982930074303352e+00 1.3051495523269532e+01 0 0 2
215 2 5.9637991235200456e+00 9.4070773528611813e+00 1.0430869056537940e+01 1 0 -1
310 1 -7.7936296144717376e-01 7.2986017238923253e+00 9.5527758863863390e+00 1 0 3
946 1 1.6594148170079148e+01 3.6610323549782189e+00 1.3673232493412210e-01 0 0 1
545 2 1.6121692198769373e+00 6.7823784754002858e-02 5.7427922190541176e+00 0 0 2
895 1 -2.5955534678672074e+00 2.0608737459491380e+00 1.4016655370420054e+01 1 0 3
501 2 7.0553272832785208e-01 4.7661986384961619e+00 1.1128722546167170e+01 -1 0 2
411 2 -7.3586639705845158e-01 5.9057994258220186e+00 8.5874483832875459e+00 -2 0 3
270 2 2.9789717406415788e+00 2.9684799902825301e+00 1.3002816350619531e+01 2 0 1
256 1 6.1105300933549875e+00 8.2655709887114917e+00 1.4832204341905760e+01 2 0 2
918 2 -2.5569186588908686e+00 7.2409317750143973e+00 1.6852346704980899e+01 -2 0 2
463 1 1.2153443332437533e+01 8.9261244987835404e+00 1.1655322007571273e+01 2 0 0
592 1 1.1953302865420161e+01 7.8658216472371958e+00 9.3245262404787486e+00 -3 0 -1
474 2 1.5192979286147818e+01 3.9171823706562927e+00 4.4915125631410691e+00 1 0 5
50 2 1.3297320427390304e+01 4.2002484972862710e+00 6.0846447303528635e+00 1 0 3
762 2 9.2640347630110647e+00 4.2959204837173850e+00 1.1346994651385716e+01 2 0 4
495 2 -3.3509900835804007e-01 1.5272848557581420e-01 1.8852606129395379e+01 0 0 1
165 2 9.2008080345924022e+00 3.0863399674552108e+00 5.6992532607319655e+00 -3 0 0
218 2 1.0973266322392487e+01 -7.9340235446525820e-01 5.6805341622986782e+00 -1 0 3
406 1 3.1559700691515515e+00 4.4989520296909475e+00 8.5523538675150679e+00 -1 0 2
703 1 2.0552201831385251e+00 8.3549829025803266e+00 2.4033076276274836e+00 -1 0 1
81 2 9.4322970176072030e+00 4.4666605818978233e+00 1.3980098615799852e+01 -2 0 0
193 1 1.1358111516305566e+01 4.1076442520699006e+00 1.6742706846474324e+01 -1 0 4
69 2 1.6660299265480262e+01 -1.1294120918065294e+00 2.0822310435682048e-01 0 0 4
742 1 4.3106127990197036e+00 2.2211830352336270e+00 7.6487408954409730e+00 1 0 -1
963 2 9.1069686596638917e+00 7.7797407701458674e+00 1.7008811663483194e+00 1 0 1
356 2 -4.0517309530275138e+00 -2.2576687373819793e-02 1.6668186830106986e+01 -1 0 1
507 2 3.2175620160735301e+00 6.3269031305866195e+00 7.7719114013214536e+00 0 0 1
276 2 3.0821984681319337e+00 1.9767525324639732e+00 6.5823365016865312e+00 -2 0 0
16 1 8.0304550073442762e+00 -6.2827241158691161e-01 6.8264395522161188e+00 0 0 3
152 2 5.8572630158593153e-02 4.2867559861812996e+00 7.4890682414552572e+00 2 0 1
189 2 4.8894114411469367e+00 6.5561072923227384e+00 2.4769016327772984e+00 1 0 2
64 1 8.6593870114090326e+00 1.3248343298298209e+00 9.1471993344573743e+00 -2 0 2
952 1 2.6205584453357833e-01 3.1081263204651677e+00 1.8953170576408372e+01 -1 0 3
342 2 1.0939236928369299e+01 7.6492228521328371e+00 1.7274817127296092e+01 0 0 -1
417 2 4.8541633564532738e+00 1.0431222314723868e+01 1.0303094793713830e+00 0 0 2
790 1 4.2071427403233388e+00 -4.0973373618205078e-01 1.6514383037634250e+01 1 0 3
760 1 9.1502865264728719e+00 3.9886012115422158e+00 1.2249462543511973e+01 2 0 4
788 2 6.9807285283259004e+00 5.5993685342800781e+00 2.4736727014024997e+00 2 0 -1
225 2 1.1054673385481596e+01 1.0308401685552072e+01 1.3677977700547808e+01 -3 0 4
744 2 4.2503902658208137e+00 1.4260307864582140e+00 8.2493777023632795e+00 1 0 -1
875 2 6.0275533060300059e+00 2.5409951580754688e+00 2.9333072187500191e+00 -2 0 4
258 2 5.7515549827062911e+00 7.3929719488055436e+00 1.5076654025922810e+01 2 0 2
858 2 2.0933658018195338e+00 6.5013204969670646e+00 6.0304181096738256e+00 -3 0 3
494 2 7.1584424034489214e-01 -5.6055745563444770e-01 1.7871803098089714e+01 0 0 1
511 1 1.3232059219030736e+01 9.4564788892622875e+00 7.6466743138759163e+00 0 0 4
738 2 1.3781179477493732e+01 2.4438284801491732e+00 1.8061613621005410e+00 -2 0 1
57 2 1.2414739822200264e+01 2.7904349054622180e+00 1.0329880135728255e+01 1 0 1
492 2 6.1763281065928179e+00 8.8389547385604335e+00 5.5981108662829335e+00 1 0 4
877 1 6.7958202863576291e+00 1.8485792032244031e+00 1.4010484457214378e+01 0 0 2
997 1 1.5486375033685158e+01 1.0273401760358317e+01 9.4081019146577038e-01 0 0 2
876 2 6.9944154158725569e+00 1.3647662710995099e+00 2.5776798345753456e+00 -2 0 5
118 1 -5.8034035759852189e+00 6.6144081450780625e+00 1.7695293365047426e+01 -1 0 0
242 2 8.5063472690075912e+00 4.3402005920643170e+00 2.3293623203839333e+00 1 0 0
54 2 8.1423644282032832e+00 4.5787724399434353e+00 1.8457097548932460e+01 0 0 3
792 2 4.1324439707864942e+00 -8.5332771116068096e-01 1.7393268885406652e+01 1 0 3
682 1 4.7225099006948277e+00 2.5514622567490242e-01 1.2966995831780144e+01 3 0 -1
648 2 -2.3010756502026641e-01 1.9478557306154607e+00 1.7647427678452644e+01 -2 0 2
272 2 1.2902312751443130e+00 1.0161797270222436e+01 9.4982076194865126e+00 -2 0 1
320 2 7.2183642635457534e+00 2.3580976296786518e+00 6.4254296655000687e+00 0 0 1
201 2 3.0688764601480547e+00 3.6241077827733914e-01 2.3185977801398221e+00 -2 0 0
589 1 -3.8698528636616141e+00 2.3486830698284318e+00 1.8432149370452930e+01 -3 0 -1
1086 2 2.8938574342943126e+00 5.1329585921682614e+00 1.1158249000376514e+01 0 0 1
818 2 1.6595764459763821e+01 5.5152736243944176e+00 3.0836713810692866e+00 -1 0 -1
214 1 6.4158914660935320e+00 1.0254773456549771e+01 1.0318563532877404e+01 1 0 -1
319 1 6.5161719790593242e+00 1.7181751030047896e+00 6.4678982999892121e+00 0 0 1
132 2 1.0817969515864688e+01 -9.7073413383238893e-01 1.4736499362195849e+01 -3 0 -2
716 2 1.3271455909257153e+01 1.0218095523225113e+01 3.2527737259017715e+00 1 0 5
579 2 3.4596305457010867e+00 8.7217200395786563e+00 1.2088985000806716e+01 -4 0 1
404 2 1.6267378428084601e+01 -6.8671340332319364e-02 3.6815936272806664e+00 0 0 0
1085 2 2.1608779748310023e+00 6.5193360321770824e+00 1.1077554547347530e+01 0 0 0
491 2 7.1068664354276345e+00 9.4947709760250820e+00 4.4167004502924474e+00 1 0 4
842 2 1.6892655071300824e+00 1.4046762741683834e+00 3.1583945714423951e+00 1 0 1
913 1 5.6309896126788264e+00 3.3287400713463855e+00 4.3326424370608754e+00 -2 0 1
479 2 5.9792198611720941e+00 4.9043520495777191e+00 5.7988027601912400e+00 4 0 2
1038 2 -2.4939405344221011e+00 4.6254462757819041e+00 7.4148782426458046e+00 0 0 0
563 2 6.3911757711871262e+00 5.2762722753216442e+00 1.3172350808852833e+01 -2 0 0
878 2 7.7486644672389966e+00 1.6645543252871087e+00 1.3832907688321114e+01 0 0 2
428 2 1.3090900748434873e+01 3.3308241366486890e-01 4.0778719793937244e+00 0 0 4
1669 1 1.2092734733021668e+01 4.6827362967187218e+00 3.3408232084225697e+00 0 0 1
968 2 8.4745335146132721e+00 3.0837385020176167e-01 1.1921963115084861e+01 0 0 4
750 2 3.9460907265443623e+00 6.5856585346677878e+00 1.3391857511409750e+01 0 0 1
194 2 1.0652754216693101e+01 4.3948838021797796e+00 1.6100897141064099e+01 0 0 4
172 1 6.2340745736508909e+00 1.0723994689262812e+00 1.0010690424404007e+01 0 0 3
316 1 1.5778584937901831e+01 8.3374426107775843e+00 4.2428956794836266e+00 1 0 -2
174 2 6.5632394700820740e+00 5.7535989535689613e-01 1.0786695109506544e+01 0 0 3
5 2 2.7308733118223572e-02 5.4157306048550886e+00 1.7038404101373740e+01 1 0 -1
306 2 8.6024584754453564e+00 8.9419072636463026e-01 4.0485636459033980e+00 1 0 1
723 2 -2.6420090160161225e-01 2.8033801358359085e+00 1.0111252247235036e+01 4 0 4
106 1 -4.1551585303483574e+00 5.6920409668862861e+00 1.4297424853502955e+01 1 0 1
520 1 8.9751287662580381e+00 8.6913292511856532e+00 1.4808128774909033e+01 0 0 -1
515 2 1.0171912314842713e+01 5.3617222226874466e+00 8.8157761798869512e+00 1 0 2
618 2 9.5643961925124472e+00 6.7390211356397112e+00 3.6931273657520762e+00 -1 0 1
832 1 4.8400439520004239e+00 3.8715991309013131e-01 3.6806566343728686e-01 0 0 4
352 1 1.2822945119048164e+01 7.3009475253683256e+00 8.1283233970743363e-01 -2 0 2
140 2 5.0722916073413575e+00 -1.0125776668056954e+00 3.5695129795407912e+00 -4 0 3
771 2 9.3354435512895773e+00 8.0677849654584826e+00 1.0783032224244714e+01 2 0 4
421 1 -2.3484179674459149e-02 7.1751357686261628e+00 1.2258995934385876e+01 -5 0 -3
708 2 5.8585146899366993e+00 7.1852379929237298e+00 9.4870182277661090e+00 2 0 4
517 1 1.1012413022425735e+01 9.7329244898008476e+00 3.7172892680720544e+00 -3 0 1
846 2 2.3345481390891036e+00 6.4900664201620160e+00 1.4616287841344388e+01 0 0 1
722 2 -1.0754540761110243e+00 1.5907959944266934e+00 9.5751936382800587e+00 4 0 4
125 2 -1.1259053557161249e+00 4.6119876630067740e+00 1.3738369714626991e+01 1 0 4
526 1 -4.7935519632323347e+00 8.0733762946411787e+00 1.5118614078442247e+01 -2 0 2
274 1 2.2781270133748928e+00 1.8111049721884944e+00 5.9745576327522567e+00 -2 0 0
261 2 8.6954012898800208e+00 9.7605842238168883e+00 5.8895094026646024e+00 -5 0 2
516 2 1.0763176791676095e+01 4.6176884767843012e+00 1.0049249700642694e+01 1 0 2
679 1 2.4509095721940026e+00 4.0039211313286813e+00 1.7595709566057067e+01 1 0 3
550 1 6.9182174535880305e+00 5.6055696157309036e+00 1.5779131228059283e+01 -4 0 -1
691 1 2.3176605608999257e-01 8.4494483302159384e-01 1.3144601395945960e+01 -1 0 1
1533 2 4.5798308248183535e+00 9.5802841716272571e+00 1.7317640582260594e+01 -1 0 -1
289 1 9.7664139605283289e+00 2.0607659679934733e+00 4.1766298495183278e+00 1 0 1
8 2 9.8247557405658448e-01 8.4287318731398209e+00 1.4619741613210561e+01 -2 0 -2
564 2 5.5648056549325977e+00 4.2113057754802590e+00 1.2332516800962731e+01 -2 0 0
594 2 1.2006896297229957e+01 8.0849101351061456e+00 1.0293082758026033e+01 -3 0 -1
120 2 -5.9573720443316631e+00 5.6733481427061019e+00 1.7422648029178937e+01 -1 0 0
704 2 2.6400748040794459e+00 8.6729701573353211e+00 1.6630641466139848e+00 -1 0 1
505 1 3.0155411042774656e+00 7.0912438512370688e+00 7.2865963938512541e+00 0 0 1
159 2 1.0157374024377997e+01 7.9169515279466118e+00 8.6852742788176940e+00 1 0 0
855 2 -1.5835537702419336e+00 1.9772594187248704e-01 1.6578298618432164e+01 1 0 0
291 2 1.0711545089525755e+01 1.7513473935285897e+00 4.2721431420679323e+00 1 0 1
841 1 7.7304969730135986e-01 1.7005580796552340e+00 3.0386420255762352e+00 1 0 1
721 1 -2.3612086898305673e-01 2.1063167610539093e+00 9.4501255995019040e+00 4 0 4
669 2 1.4795924930950761e+01 1.1063599139052784e+00 9.5746460502533264e+00 -1 0 2
229 1 6.7383454852327791e+00 3.9016337983923561e+00 9.2887869005405737e+00 1 0 2
768 2 -2.3765563355005082e-01 3.2062277127375447e+00 1.5402711541999221e+01 -1 0 1
1585 1 2.4404750798665713e+00 9.8565855544609065e+00 4.5469283600743680e+00 0 0 1
953 2 -4.3135593022406926e-01 3.6867276423522464e+00 1.8628124870294879e+01 -1 0 3
200 2 3.9661395783285407e+00 4.9398581135884800e-01 3.5219229090255353e+00 -2 0 0
998 2 1.6219714416948733e+01 1.0110905755661461e+01 1.5517898649572759e+00 0 0 2
852 2 -3.8341823243125028e-01 7.9347715449727403e+00 6.0202657099805430e+00 -1 0 2
778 1 2.2299391945696421e+00 1.7582040451719276e+00 1.5879398458997079e+01 -1 0 2
51 2 1.2232321209384153e+01 3.1368639875190869e+00 6.2713715893653568e+00 1 0 3
138 2 -1.6158675813696588e+00 1.0097136705745342e+01 1.1194296827607298e+01 -2 0 2
7 1 4.5541563478365266e-01 9.2884816382543391e+00 1.4699111038234612e+01 -3 0 -2
590 2 -3.6729147316716420e+00 2.5685147882920818e+00 1.7527530713206797e+01 -3 0 -1
655 1 6.8315664373892711e+00 6.9097541136060450e+00 1.2552993009163272e+01 3 0 2
268 1 2.7263735228844661e+00 3.5133010665007278e+00 1.3832393071035375e+01 2 0 1
706 1 5.5024502036159957e+00 7.6642389325061551e+00 1.0301984235582243e+01 2 0 4
464 2 1.1753394914395365e+01 8.4193660063479587e+00 1.2397813479743871e+01 2 0 0
749 2 3.8105850316474417e+00 5.1397522520439152e+00 1.3922956974538772e+01 0 0 1
914 2 4.6538424481971621e+00 3.4935322172104604e+00 4.3606691892018619e+00 -2 0 1
857 2 1.0692613060445557e+00 6.5916112824499562e+00 4.8126805657407070e+00 -3 0 3
499 1 -2.6735117634701488e-02 4.1097091426762242e+00 1.1100842115528703e+01 -1 0 2
80 2 8.5639317479369836e+00 5.2002284542589017e+00 1.5024347859327266e+01 -2 0 0
886 1 4.2143982583152741e+00 9.0240957360489524e+00 1.8890741764971551e+01 0 0 2
737 2 1.2421421801279527e+01 2.1509435378269668e+00 1.2117914772710934e+00 -2 0 1
681 2 1.9405391627613806e+00 3.7398288571051239e+00 1.8440718713546449e+01 1 0 3
909 2 1.0536161893098976e+01 8.7670162475616209e-01 9.7829568789826951e+00 3 0 5
374 2 1.5602231417772957e+01 2.2889665082583952e+00 2.7941535476479680e+00 0 0 1
84 2 7.6601501043654547e+00 4.8388997498468811e-01 1.6071131600802740e+01 0 0 -2
874 1 6.2994192492221952e+00 1.9862919772048535e+00 2.1702621070834525e+00 -2 0 5
844 1 1.3799650035449469e+00 6.8174567463568270e+00 1.4613996755406781e+01 0 0 1
917 2 -3.9252146893539606e+00 6.7892687033030423e+00 1.7469594849945381e+01 -2 0 2
850 1 -8.5435270640478000e-01 7.1013995355176522e+00 5.8067941369436884e+00 -1 0 2
422 2 -1.6782339092023868e-01 8.1311366182228966e+00 1.2227979517300481e+01 -5 0 -3
577 1 3.5322826281763424e+00 7.7295502130877445e+00 1.2118970441084198e+01 -4 0 1
582 2 1.4809708670878337e+01 5.0515360272683352e-01 9.9592950160720861e-01 -2 0 3
192 2 1.2235737354308009e+00 9.6024375253290000e+00 5.3284603488228077e+00 1 0 -1
657 2 6.6358750304234269e+00 7.6146755235317460e+00 1.3237417286920508e+01 2 0 2
480 2 5.5278006919341580e+00 6.2485640453671332e+00 5.3815531748159966e+00 4 0 2
599 2 3.0533780170721934e+00 3.7805991954743972e+00 2.0965826166656094e+00 -1 0 4
789 2 6.8273015686832057e+00 4.5054974522524160e+00 3.6568872535523558e+00 2 0 -1
596 2 4.1375350808166722e+00 4.8988924731308954e+00 1.8870022713163827e+01 0 0 4
748 1 4.0828476461475738e+00 6.0575577797950215e+00 1.4166404718218480e+01 0 0 1
897 2 -2.9156087932975767e+00 2.6291974616728893e+00 1.3248286313313866e+01 1 0 3
667 1 -2.7706617035269394e+00 1.2823481004585848e+00 1.0185708163314430e+01 0 0 2
514 1 9.9510092431635027e+00 4.9223288513965660e+00 9.6777791444174088e+00 1 0 2
1025 2 5.0776844120669757e+00 4.1823951390073955e+00 1.0061449682542236e+01 0 0 0
1036 1 1.4917675550999821e+01 4.2406859027824098e+00 7.2303578313666366e+00 -1 0 0
856 1 1.7892738384075610e+00 6.0798918885706055e+00 5.1525526553746417e+00 -3 0 3
1410 2 -7.4328015883968312e-02 9.8766271784314821e+00 1.6514956648931033e+01 3 0 2
1670 2 1.2486375593974467e+01 3.9232104136716730e+00 2.9156999369666265e+00 0 0 1
199 1 3.3240481122523646e+00 1.0253644615126176e+00 2.9509006929373927e+00 -2 0 0
473 2 1.5371364796863199e+01 2.5174324852257217e+00 5.1332826831578098e+00 1 0 5
405 2 -5.4681287320037042e-01 3.6257762598098875e-01 3.6203819680885019e+00 1 0 0
916 1 -3.0197473766892307e+00 7.0777797017233439e+00 1.7757786684176828e+01 -2 0 2
128 2 2.6502815441644134e-01 5.8779140043249303e+00 1.6915954752021181e+00 3 0 1
988 1 1.2309920762037995e+01 1.6818329725204362e+00 7.0947128538043494e+00 3 0 2
488 2 8.4578256704795383e+00 5.8981031259694250e+00 5.2424139614528977e+00 -5 0 -5
250 1 8.7884939723104907e+00 2.0195816295178033e+00 1.6409879724153306e+01 2 0 4
53 2 7.2598913095590287e+00 3.5408187346869910e+00 1.7827689083846103e+01 0 0 3
598 1 3.1064026406056429e+00 4.2029510740398095e+00 1.2305934684638413e+00 -1 0 4
385 1 1.3432955650657224e+01 5.4927236438247187e+00 8.9663948855224458e+00 -1 0 1
126 2 -1.1063312873442257e+00 6.1422974832166499e+00 1.3183007251315106e+01 1 0 4
684 2 4.7265242325012782e+00 -5.9497631858245881e-01 1.2440684061084232e+01 3 0 -1
408 2 2.2709675481662805e+00 4.1311660519129969e+00 8.2242405411034003e+00 -1 0 2
381 2 1.0344371794560079e+00 7.5466120280479898e-01 9.7532432531909450e+00 2 0 3
861 2 1.0339079215130687e+00 9.2264514917312006e+00 7.5398177369117194e+00 1 0 4
46 1 1.0860515208350769e+01 7.1936888396875798e+00 1.3305736959849591e+01 -1 0 4
809 2 1.1589965883542192e+01 1.0329450060009782e+00 1.5262585586078412e+01 0 0 1
275 2 1.5783195352843826e+00 2.3373057521011376e+00 6.3877737047369596e+00 -2 0 0
965 2 1.2654650204841317e+01 8.0975635174568463e+00 3.8771316571079999e+00 0 0 4
251 2 8.3619548275912408e+00 2.6131969766208747e+00 1.5811496363846588e+01 2 0 4
341 2 9.7483675123748679e+00 8.4049310482363975e+00 1.6580219997681276e+01 0 0 -1
187 1 5.1363886862133112e+00 6.2473376963753262e+00 1.5732130728419724e+00 1 0 2
497 2 4.3014413397813622e-01 3.9234856099725057e+00 5.3157852131770875e+00 -2 0 1