LAMMPS data file via write_data, version 3 Mar 2020, timestep = 1000000

1008 atoms
2 atom types

2.5910664978762377e-01 1.8140448350207571e+01 xlo xhi
8.7219579182736595e-02 2.2483169420812658e+01 ylo yhi
2.2019058958858473e-01 1.9285525410407992e+01 zlo zhi
-3.7816598265728481e-02 -6.5561822842879076e+00 -1.6224004916938050e-02 xy xz yz

Masses

1 16
2 2

Atoms # atomic

1 1 6.6657068591071571e+00 1.2098467493998513e+00 4.9231893681009149e+00 0 0 0
671 2 8.4732499751645598e+00 5.9210762003332471e+00 8.6740726212362116e+00 0 0 0
3 2 6.8042134616225596e+00 1.6572038402706564e+00 4.0193211744543040e+00 0 0 0
4 1 4.0011594879797023e+00 1.0527432362898175e+00 4.9713529434942094e+00 0 0 0
5 2 4.9811412678893783e+00 9.5683848001963645e-01 4.8038392794535421e+00 0 0 0
6 2 3.9609894088225586e+00 1.4683557268822831e+00 5.8769428344199017e+00 0 0 0
7 1 -4.4644983456418874e-01 6.4769985714561651e+00 5.2431457065551035e+00 0 0 0
8 2 -3.9264497787898778e-01 5.9441553780415548e+00 6.1422257661451889e+00 0 0 0
9 2 -1.1702938180254008e+00 7.0764510841313335e+00 5.4139913116629232e+00 0 0 0
10 1 2.4684998353150061e+00 6.5207285076242947e+00 4.5270915668746579e+00 0 0 0
11 2 1.6088732725481163e+00 6.9392821121436219e+00 4.5889157516379262e+00 0 0 0
12 2 3.0160328501017930e+00 7.2277363858218990e+00 4.9994841296740571e+00 0 0 0
154 1 1.2836138618681620e+01 2.9729909754103451e-01 1.9034434113883951e+00 0 0 0
14 2 5.0689515458443459e+00 5.0256623512172736e+00 8.6295007832352404e+00 0 0 0
220 1 3.8828320036862718e+00 1.0977373059385830e+01 3.4209871515533288e+00 0 0 0
290 2 1.5975424597916078e+01 1.0546388258036869e+01 2.8617527247072010e+00 0 0 0
18 2 5.7589329679833750e+00 5.1757359731080728e+00 1.0853600085117909e+00 0 0 0
399 2 8.1888604297963514e+00 4.6615074038981080e-01 9.5180999734531924e-01 0 0 0
146 2 1.7501768172097456e+01 6.3690298486423149e+00 1.3049092321766462e+00 0 0 0
21 2 9.8944872153192165e-01 2.7294092866365278e+00 1.1770217232325120e+00 0 0 0
271 1 1.0176944296647848e+01 9.7624261257580667e+00 2.9218728900859631e-01 0 0 0
23 2 1.5977096659428893e+00 3.6234892826735301e+00 9.6899769019218649e+00 0 0 0
67 1 -2.1547455474138908e+00 4.1958073013546449e-01 8.7982748652256877e+00 0 0 0
25 1 4.9794107394728062e+00 6.3271563482138449e+00 7.2564892215544790e+00 0 0 0
26 2 5.5976666356276645e+00 7.0504454865930022e+00 7.4852118628624833e+00 0 0 0
27 2 4.0932292211173236e+00 6.7538675069926022e+00 7.5546357672175688e+00 0 0 0
28 1 5.6728939470618078e+00 6.5004231886339312e+00 2.4262212752286580e+00 0 0 0
29 2 5.6172220251112490e+00 6.2277168060921415e+00 3.3679299504463045e+00 0 0 0
30 2 4.8807649340344632e+00 7.0622463305904839e+00 2.3341169784835514e+00 0 0 0
31 1 1.4733046965102030e+00 1.6301619469634983e+00 2.8063481816192053e+00 0 0 0
32 2 2.3343486927156105e+00 1.0804976676252389e+00 2.6078126026962591e+00 0 0 0
33 2 1.5361850923843785e+00 1.9353755152420926e+00 3.8573203607712738e+00 0 0 0
34 1 4.4426321275534919e-01 1.3983035917165501e+00 7.6348256595061352e+00 0 0 0
836 2 1.2653912523832552e+01 9.4581260983735653e+00 8.9619680783741273e+00 0 0 0
36 2 5.7579133024581042e-01 2.1465473886684934e+00 8.3386916601745646e+00 0 0 0
37 1 6.5491359681117185e+00 2.6060549539722584e+00 2.5510251486865205e+00 0 0 0
38 2 5.5734050878511407e+00 2.7078434428571794e+00 2.7756822278114037e+00 0 0 0
39 2 7.1374167975336835e+00 3.2810318912182508e+00 2.8490526669655925e+00 0 0 0
40 1 4.1898115955273880e+00 2.4492748647256763e+00 7.2112743140071478e+00 0 0 0
41 2 5.1145398908354505e+00 2.7145015629723535e+00 7.0538855602040895e+00 0 0 0
42 2 3.5761711636271221e+00 3.1618327852192367e+00 7.0011019475326517e+00 0 0 0
43 1 -4.8957386331120123e-02 4.9321000544555673e+00 7.4193696636228266e+00 0 0 0
44 2 -7.9231291403682036e-01 4.2662035315673332e+00 7.1517044452751568e+00 0 0 0
45 2 -3.6322310880752617e-01 5.5904606200786846e+00 8.1467047421491685e+00 0 0 0
46 1 2.1026009991502237e+00 4.9540125524714362e+00 2.3672243395351291e+00 0 0 0
47 2 1.3343049516655676e+00 4.4769537618125828e+00 2.7604178929276282e+00 0 0 0
48 2 2.1997790432606674e+00 5.5673884107085865e+00 3.1509478692955639e+00 0 0 0
49 1 6.7340442748954725e+00 3.4782143354776407e+00 6.8073761663429746e+00 0 0 0
50 2 6.4217759508821164e+00 4.0514570423090319e+00 6.0259368992341109e+00 0 0 0
51 2 6.9046744769830966e+00 2.6497941004514423e+00 6.3180425844526518e+00 0 0 0
52 1 4.1280241491019316e+00 3.3267402881169166e+00 3.6764075628298301e+00 0 0 0
53 2 3.3522644304315046e+00 3.5540291042696546e+00 3.1477365152430030e+00 0 0 0
54 2 3.9434439986879677e+00 2.4469627233048428e+00 4.1389087314074224e+00 0 0 0
55 1 -1.9241238084446444e-01 4.1691710065577539e+00 3.4992209831311643e+00 0 0 0
56 2 -4.5589552466578309e-01 4.9429430221860295e+00 3.9940658294841596e+00 0 0 0
57 2 1.3447621031887635e-01 3.6023758537515365e+00 4.2100630726496195e+00 0 0 0
58 1 2.3850836026515303e+00 4.4198283105643208e+00 6.5569640472596769e+00 0 0 0
59 2 2.2922681507459277e+00 5.0820895318494781e+00 5.8072562858311354e+00 0 0 0
60 2 1.5067125766325780e+00 4.4910279495071359e+00 7.0055082462651050e+00 0 0 0
61 1 8.5230403293855463e+00 7.1502601379518405e+00 1.6889986286751371e+00 0 0 0
62 2 7.7257168056359129e+00 6.9878903077531715e+00 2.2048281193985657e+00 0 0 0
63 2 8.6017777281948060e+00 6.2932033544875043e+00 1.1656470162146988e+00 0 0 0
64 1 2.3635638488207822e+00 7.2224713709927340e+00 7.9046331723714056e+00 0 0 0
65 2 1.5605557777685641e+00 7.7142333236450371e+00 7.6389149978274329e+00 0 0 0
22 1 8.1939346366167953e-01 2.9683637339224678e+00 9.6669567735674793e+00 0 0 0
19 1 1.2428057622736752e+00 2.9984706011233744e+00 2.9686668875768846e-01 0 0 0
68 2 -2.3438698430176457e+00 1.2031407762079422e+00 9.3228260070454922e+00 0 0 0
156 2 1.2065956606236965e+01 5.4978266344733018e-01 2.5122399436669220e+00 0 0 0
72 2 3.7731394565718714e+00 1.1379861630741306e+00 1.0197766179312828e+00 0 0 0
73 1 5.7339998373064862e+00 5.2613319359374593e+00 4.8209695619947084e+00 0 0 0
74 2 5.3711910099729785e+00 5.5922979860135937e+00 5.6400080697868260e+00 0 0 0
75 2 5.0198304830902307e+00 4.7097504913546437e+00 4.4023612083042378e+00 0 0 0
76 1 1.1367399052438458e+00 2.2971045384742692e+00 5.2417496112317670e+00 0 0 0
77 2 6.0742472078989596e-01 1.9417232218026474e+00 5.9881765591795766e+00 0 0 0
78 2 1.7346830037203387e+00 2.9526505471264635e+00 5.5663816348153317e+00 0 0 0
80 2 6.7337269306854921e+00 1.8746098842561758e+00 8.9454628034496475e-01 0 0 0
69 2 1.4945090812788399e+01 2.5911525124992696e-01 8.2574038022917673e+00 0 0 0
528 2 2.9821229310946218e+00 2.9307112513034634e+00 4.4803399157348733e-01 0 0 0
85 1 1.6089293747042220e+01 1.3098274401211194e+00 5.2395177655275367e+00 0 0 0
87 2 1.6194001196809921e+01 1.3614528681318143e+00 4.2396323126883475e+00 0 0 0
88 1 1.3490167699507779e+01 1.1312111509758389e+00 5.3080329422944406e+00 0 0 0
89 2 1.3205665522556950e+01 1.6989666210522665e+00 4.5945792752510819e+00 0 0 0
90 2 1.4510811329488684e+01 1.1112631830220472e+00 5.2456396446794864e+00 0 0 0
91 1 8.1163563362090230e+00 6.4945274512523081e+00 5.2565047567287095e+00 0 0 0
92 2 7.7152868151260918e+00 5.8715968498649991e+00 4.6620562114549076e+00 0 0 0
93 2 9.0804479741063542e+00 6.5242040289981675e+00 4.9974186400597862e+00 0 0 0
94 1 1.1084014928258176e+01 6.2958557070940779e+00 4.9475392316723568e+00 0 0 0
95 2 1.1515257869182943e+01 7.1502727521975427e+00 5.1193315214413744e+00 0 0 0
96 2 1.1372022866148784e+01 5.6279028519985612e+00 5.6300224671956629e+00 0 0 0
612 2 1.2358853122954759e+01 3.0283169013999895e+00 6.0884390025155188e-01 0 0 0
97 1 1.4175240923979594e+01 5.0319280353773133e+00 9.5626453655216395e+00 0 0 0
86 2 -1.2879958716400866e+00 5.2717384108176579e-01 5.4905238861117631e+00 1 0 0
101 2 1.4722727129264856e+01 5.0736460816887945e+00 1.2116566315375641e+00 0 0 0
99 2 1.3304532861469454e+01 4.6519630902423330e+00 9.6423979486333042e+00 0 0 0
221 2 4.7055575077908145e+00 1.0696644873292243e+01 2.9668267289168502e+00 0 0 0
610 1 1.3131632987772083e+01 2.4079238832860805e+00 4.3573947143880543e-01 0 0 1
209 2 3.5038549238005183e+00 1.0808010307571470e+01 7.0750893129799826e+00 0 0 0
109 1 1.3520497156557004e+01 6.2784866885260433e+00 7.3192299231609335e+00 0 0 0
110 2 1.3838284869748763e+01 5.6275803366479860e+00 7.9670349147663497e+00 0 0 0
111 2 1.2624444560288524e+01 6.5390393408803478e+00 7.6287128710679006e+00 0 0 0
112 1 1.4963369487527915e+01 6.1830906516547328e+00 2.4765568645638099e+00 0 0 0
113 2 1.4283971740961556e+01 6.8848477072983734e+00 2.3112867324219240e+00 0 0 0
114 2 1.5897354169288327e+01 6.6072764819841296e+00 2.4088627224009733e+00 0 0 0
115 1 1.0566056303846707e+01 1.6201805554858766e+00 2.6006270469953989e+00 0 0 0
116 2 1.0451373217214080e+01 2.1835242899311811e+00 1.7708905989759796e+00 0 0 0
217 1 6.5729512742019987e+00 1.0868654222312060e+01 6.4525573333851272e+00 0 0 0
118 1 9.2231456111706454e+00 1.2993681995776014e+00 7.4114767548729938e+00 0 0 0
119 2 9.5051517386195492e+00 2.1341096717205534e+00 7.8937179700927134e+00 0 0 0
120 2 9.4664319528265626e+00 1.6121409491596421e+00 6.4925917377970483e+00 0 0 0
121 1 1.5510212224942320e+01 2.4497453068645343e+00 2.7824077011833128e+00 0 0 0
122 2 1.6035749558615798e+01 3.2644902798577937e+00 2.9551253197269651e+00 0 0 0
123 2 1.5531680892180598e+01 2.4014790465874887e+00 1.8182769228326461e+00 0 0 0
124 1 1.3548782636315273e+01 2.4412952474663552e+00 7.9855949976000629e+00 0 0 0
125 2 1.4337861883384086e+01 2.9896944539819001e+00 7.9412473162380035e+00 0 0 0
126 2 1.3424500449566754e+01 2.1813124564083823e+00 7.0726594119826185e+00 0 0 0
127 1 8.9940501137480720e+00 4.9620702656329785e+00 7.4372112498344576e+00 0 0 0
128 2 8.3869121083764835e+00 4.1890527440837246e+00 7.2918323422784068e+00 0 0 0
129 2 8.7381164988272122e+00 5.5703177194678091e+00 6.7486529148351515e+00 0 0 0
130 1 1.0905988632453246e+01 4.7932884379993173e+00 2.6250091267570212e+00 0 0 0
131 2 1.1512408461757612e+01 4.0281797570787266e+00 2.8560744130827747e+00 0 0 0
132 2 1.0954760756261209e+01 5.3568828630576055e+00 3.4037074053511560e+00 0 0 0
134 2 1.5120587597251600e+01 4.2041053271675803e+00 6.1934991120860294e+00 0 0 0
136 1 1.2852902822803122e+01 3.2285284522775783e+00 3.5250479420774599e+00 0 0 0
137 2 1.3096831262980444e+01 3.8947313172246369e+00 4.1546888754293123e+00 0 0 0
138 2 1.3744684764653490e+01 3.0146557755968812e+00 3.1565853819721452e+00 0 0 0
139 1 8.4618623971285096e+00 4.1627500112817915e+00 3.6390734363935509e+00 0 0 0
140 2 9.1918448799609624e+00 4.6012658728584137e+00 3.0846995893218510e+00 0 0 0
141 2 9.0468495575680361e+00 3.5878384257646054e+00 4.1646738560439811e+00 0 0 0
142 1 1.1410038307428376e+01 4.2133109043212480e+00 6.6650409431123050e+00 0 0 0
143 2 1.2178979155590016e+01 4.1278537821861354e+00 7.2297512366177044e+00 0 0 0
144 2 1.0577416809416286e+01 4.4860241218664694e+00 7.0905981951604105e+00 0 0 0
147 2 1.6718921353840415e+01 7.6959188496387174e+00 1.1036355471298087e+00 0 0 0
148 1 1.0997752272824838e+01 7.2527308996605777e+00 8.3300752785178709e+00 0 0 0
149 2 1.0890351696148819e+01 6.4464818866752580e+00 8.8783465983997516e+00 0 0 0
150 2 1.1416655543748883e+01 7.8893273879244301e+00 8.9253803125566495e+00 0 0 0
2 2 7.3747481669608739e+00 5.5152837011259592e-01 4.9293240512749099e+00 0 0 0
305 2 1.2219572265964588e+01 1.0973974741686035e+01 3.2657288639349331e+00 0 0 0
153 2 6.5776730098155909e+00 1.4019859373095320e+00 9.0491851757391490e+00 0 0 0
584 2 3.0470971309394708e+00 6.9848111915231692e-01 9.3178004735157085e+00 0 0 0
155 2 1.3015976377233216e+01 1.1194107940436191e+00 1.4209002240771724e+00 0 0 0
587 2 -1.5007077256873647e+00 6.9207108228184824e+00 8.9977655152347413e+00 0 0 0
157 1 1.4274707381425259e+01 5.1748960800933901e+00 5.0504093968369483e+00 0 0 0
158 2 1.4503561123216292e+01 5.4800386662409002e+00 4.1644076914128076e+00 0 0 0
159 2 1.3987659833208641e+01 5.8696783025794144e+00 5.6389840227950883e+00 0 0 0
160 1 1.0294954112678170e+01 2.3413154889671275e+00 4.9953486599863588e+00 0 0 0
161 2 1.1023380323453482e+01 2.8515729102769702e+00 5.4348838723488404e+00 0 0 0
162 2 1.0646006972689129e+01 2.0318047308034011e+00 4.0357503148869345e+00 0 0 0
668 2 1.2709568472290927e+01 1.6197903974407335e+00 9.3215070091243817e+00 0 0 0
35 2 -4.3886324070633997e-01 1.0967343040688755e+00 7.9209275571654052e+00 0 0 0
301 1 1.5378009017989287e+01 1.1053831413187343e+01 6.7418355116513196e+00 0 0 0
169 1 6.6446393248209699e+00 8.8352318144771598e+00 4.8331236395455361e+00 0 0 0
170 2 7.2232220816396158e+00 8.0718322136910743e+00 5.0029036489509577e+00 0 0 0
171 2 6.9007532361377599e+00 9.5602349258699348e+00 5.4334793958379892e+00 0 0 0
172 1 3.9655577578329222e+00 8.6733528825492474e+00 5.1282315506391605e+00 0 0 0
173 2 3.7322307396187773e+00 9.1736777052286058e+00 4.3168037446831322e+00 0 0 0
174 2 4.8659671658106767e+00 8.4651408305155194e+00 5.0416171051606886e+00 0 0 0
16 1 5.8543499506417449e+00 4.5762400051625516e+00 2.5291388886017296e-01 0 0 0
775 1 6.8697055034703798e+00 1.0483679510251736e+01 9.6762396988649737e+00 0 0 0
192 2 3.7020574757337688e-01 1.0034668506124788e+01 8.9910357181717782e+00 0 0 0
199 1 1.3747306471561025e+00 9.0818680580268154e+00 2.6501230198025150e+00 0 0 0
200 2 1.3734014294030172e+00 9.6778739607163384e+00 1.8975724277485988e+00 0 0 0
201 2 7.1792889390204429e-01 8.4702471455152430e+00 2.3308554368725134e+00 0 0 0
202 1 3.8670690326525303e-01 8.8003819316348419e+00 7.3692955464386278e+00 0 0 0
203 2 -5.1435465306961081e-01 8.4593193974628793e+00 7.3743910153202732e+00 0 0 0
204 2 6.3038093870597889e-01 9.1618126474649806e+00 6.4353294165029924e+00 0 0 0
205 1 6.4907261488631658e+00 1.0163551142315388e+01 2.5556850967861542e+00 0 0 0
206 2 6.4636687854719108e+00 9.4460885792460125e+00 3.2259427818931399e+00 0 0 0
207 2 6.5798819221874130e+00 9.6931845846084190e+00 1.7246351558734061e+00 0 0 0
208 1 4.1061484980292935e+00 1.0066265940513828e+01 7.3267898845339463e+00 0 0 0
219 2 5.8632749852134953e+00 1.0778028913130335e+01 7.1006523703298132e+00 0 0 0
210 2 4.1341607016655075e+00 9.5687042302687235e+00 6.4666546007704087e+00 0 0 0
248 2 7.5438078899084040e+00 8.2382514356395475e+00 8.9134108393658462e-01 0 0 0
167 2 1.1231122237858544e+01 5.5906478220695046e+00 7.0713497726311569e-01 0 0 0
304 1 1.2980826834743629e+01 1.0640212816891140e+01 3.7190661147367998e+00 0 0 0
482 2 2.7890497365861044e-01 2.7796009350277584e-01 2.0362768172401422e+00 0 0 0
254 2 1.5796720788559952e+01 9.3515177699327623e+00 5.9242697842503178e+00 0 0 0
235 1 -2.4205373405236821e+00 7.9874112426275801e+00 8.2534329330236460e+00 0 0 0
236 2 -2.5999584719924829e+00 8.6389055784015731e+00 8.9601442848285107e+00 0 0 0
238 1 3.5768325837599391e+00 7.9486397419291706e+00 1.5362969134910360e+00 0 0 0
239 2 2.8507175431637153e+00 8.2298655789592701e+00 2.1838976823386167e+00 0 0 0
240 2 3.7730432967720731e+00 8.7958470412975505e+00 1.0765416604247746e+00 0 0 0
244 1 7.6604189748188123e-01 9.9285449837879707e+00 5.0026383921835196e+00 0 0 0
245 2 1.1195080127033286e+00 9.5053543704727801e+00 4.1557371549105859e+00 0 0 0
246 2 1.5020661983585211e+00 1.0592267850273540e+01 5.3459805160393268e+00 0 0 0
753 2 3.9009639453361218e+00 9.3072339553315793e+00 8.9666042216757145e+00 0 0 0
224 2 -6.2636450424134793e-02 1.1013189037672754e+01 3.9096979073043090e+00 0 0 0
253 1 1.5644151050573630e+01 8.6071265546000344e+00 5.3131724091265706e+00 0 0 0
255 2 1.5845044580956973e+01 9.1012168203611914e+00 4.5049672575104180e+00 0 0 0
256 1 1.2874177593183344e+01 8.4588762675412728e+00 5.2734765759001894e+00 0 0 0
257 2 1.3885882252631385e+01 8.4793683677710767e+00 5.3381703292534972e+00 0 0 0
258 2 1.2753602074673941e+01 9.2402649600297853e+00 4.7176604695897799e+00 0 0 0
117 2 9.8032869922639758e+00 1.0476151585664661e+00 2.5583846378072033e+00 0 0 0
272 2 1.0330530592483246e+01 9.3092119805336129e+00 1.1827881708202761e+00 0 0 0
776 2 7.6127228671221676e+00 1.1114413602899260e+01 9.6061047951877061e+00 0 0 0
276 2 9.8776576626840669e+00 1.0211455670763970e+01 8.4102308253126807e+00 0 0 0
283 1 1.0753530417134970e+01 8.3699130147230019e+00 2.7074545137244033e+00 0 0 0
284 2 1.0553403838232818e+01 8.7631758928403087e+00 3.5898027346100925e+00 0 0 0
285 2 1.0075856539041622e+01 7.6984254809625448e+00 2.5483318007057840e+00 0 0 0
286 1 9.2642755558410474e+00 8.9285014842908641e+00 7.0883618409115883e+00 0 0 0
287 2 9.7347773888791345e+00 8.1731114036625474e+00 7.4455411298287641e+00 0 0 0
288 2 8.3187946635924757e+00 8.8790923417186960e+00 7.4842007999873363e+00 0 0 0
289 1 1.5234448262300882e+01 9.9024494026402419e+00 2.6325333002688183e+00 0 0 0
293 2 1.2284077289066419e+01 1.0843588663970477e+01 7.0182034015715766e+00 0 0 0
291 2 1.5400008022857106e+01 9.4023161309773435e+00 1.7780451770484544e+00 0 0 0
292 1 1.2682944508869992e+01 1.0013717863286912e+01 7.3877581006071287e+00 0 0 0
586 1 -8.1845444165776771e-01 6.3718054683877110e+00 9.4675938053146300e+00 0 0 0
294 2 1.2468764463925954e+01 9.3339924607108689e+00 6.6628392861710042e+00 0 0 0
66 2 2.7063776633093477e+00 7.7184885444871822e+00 8.6739069105573350e+00 0 0 0
583 1 3.7886265216378709e+00 1.3224983748273587e+00 9.5951595591267846e+00 0 0 0
306 2 1.3812244358620108e+01 1.0318795395854039e+01 3.1693010838491968e+00 0 0 0
274 1 9.8791699060769798e+00 1.0653021359571927e+01 9.2788008269948588e+00 0 0 0
319 1 6.8245938399801620e+00 8.2387549135476252e+00 8.1601797693864278e+00 0 0 0
320 2 6.7012264467343385e+00 8.9595585028897009e+00 8.7954409533997993e+00 0 0 0
321 2 7.2730512803990646e+00 7.5285137122912085e+00 8.6862678836759528e+00 0 0 0
322 1 1.2973963806989905e+01 7.9006228518995645e+00 1.6493816419253604e+00 0 0 0
323 2 1.2498243775263001e+01 8.0969313641514908e+00 2.5065920391191976e+00 0 0 0
324 2 1.2422088962939089e+01 7.3244794302371199e+00 1.0952176823603481e+00 0 0 0
328 1 1.0097216070635067e+01 1.0003770930213493e+01 4.8769122119481398e+00 0 0 0
329 2 9.8729079032177278e+00 9.5341018580183210e+00 5.6946248637597785e+00 0 0 0
330 2 9.3102062445078246e+00 1.0418271194812800e+01 4.4616581128083688e+00 0 0 0
100 1 1.4729430872521283e+01 4.7535775392451471e+00 2.9534017779416472e-01 0 0 0
585 2 4.0410289035189972e+00 1.7869431540081522e+00 8.7221169884102263e+00 0 0 0
133 1 1.5647082799244929e+01 3.5794508305283612e+00 6.7714728677715170e+00 0 0 0
247 1 6.9637437609704005e+00 8.8687871363386339e+00 4.1323761073632470e-01 0 0 0
237 2 1.4648575088101504e+01 7.7121877037883761e+00 7.8616223443202022e+00 0 0 0
152 2 7.6542924681771893e+00 9.8273084091536000e-01 7.9772029386488486e+00 0 0 0
670 1 8.0897248722166406e+00 6.4101584429109053e+00 9.4544459880970226e+00 0 0 0
145 1 1.7196139509324965e+01 7.2089176130909740e+00 1.7706435662746471e+00 0 0 0
135 2 1.5783760078178851e+01 2.8270299000430810e+00 6.1976448953677918e+00 0 0 0
526 1 3.9320691723507304e+00 2.7217803784825367e+00 3.2224358197781472e-01 0 0 1
165 2 1.6561585882831587e+01 1.0396865749541231e+00 7.6278051921150669e-01 0 0 0
83 2 1.8880528295548160e+00 5.4068195765221150e+00 8.5862266379760310e-01 0 0 0
302 2 1.4651181072294076e+01 1.0700601952361451e+01 7.2515010721799440e+00 0 0 0
70 1 3.5891811758185672e+00 4.5093850420910014e-01 1.7089712118357823e+00 0 0 0
17 2 5.1383577322737946e+00 3.9995260404035746e+00 4.1087707086835057e-01 0 0 0
102 2 1.4264369005530561e+01 3.8950187634791784e+00 4.2369787502718903e-01 0 0 0
13 1 5.1264972065430081e+00 4.6806507826666719e+00 9.6026467354278289e+00 0 0 0
84 2 2.9507275068787382e+00 6.4267229550089082e+00 3.0129716403023793e-01 0 0 0
780 2 1.3173677832446074e+01 9.4826826598398934e+00 6.5473146664465265e-01 0 0 0
151 1 6.7381796611864697e+00 7.8687121118924563e-01 8.2833242436741745e+00 0 0 0
521 2 1.9648097356130174e+00 5.8019219400029867e+00 9.2025673543333610e+00 0 0 0
672 2 8.9029054728784001e+00 6.9212174810698404e+00 9.7233073423483205e+00 0 0 0
108 2 8.3974580958226905e+00 2.8583180560919170e+00 9.7303919389138791e+00 0 0 0
751 1 3.7407752615712364e+00 8.7225274773788897e+00 9.7301796000577578e+00 0 0 0
163 1 1.5952293061866143e+01 1.6684165619860281e+00 2.2460870182464562e-01 0 0 0
331 1 9.1319783757361837e+00 8.8086225143065473e+00 1.9250397348695579e+01 0 0 -1
692 2 1.4749429944776651e+01 1.0818944895988025e+01 9.8920284538876349e+00 -1 0 0
15 2 4.1618263868586229e+00 4.6951985603792288e+00 9.7639802149762360e+00 0 0 0
778 1 6.4436423201116071e+00 1.0233744350901622e+01 1.9128765560330137e+01 0 0 0
333 2 8.5948975392377349e+00 8.2037345948759075e+00 1.8684020536687839e+01 0 0 0
837 2 1.2256031338985276e+01 9.5239621958891121e+00 1.0514080820011470e+01 0 0 0
509 2 -1.7401637061253616e-01 5.2733516499067723e-01 1.4504727561228611e+01 0 0 0
805 1 1.2261378619504585e+01 1.0990112492504435e+01 1.5925214774530565e+01 0 0 0
536 2 -2.4582073976101118e+00 5.1421435533179027e-01 1.1881358260662521e+01 0 0 0
98 2 1.4216248014113688e+01 5.8300318679816154e+00 1.0130030735528301e+01 0 0 0
523 1 -2.0822888499008583e+00 3.0065176004742540e+00 9.7837376985499898e+00 0 0 0
728 2 -3.2278768953815673e+00 1.0796463550200047e+01 1.3522637406610256e+01 0 0 0
168 2 4.5670890243950879e+00 6.7237914392533211e+00 1.8671807740657137e+01 0 0 0
81 2 -1.7189394527530055e-01 6.8868397756249233e-01 1.8866331913255451e+01 0 0 0
828 2 8.5202303280319782e+00 8.1625042171953446e+00 1.1146012744820977e+01 0 0 0
724 1 6.9318426961667523e-01 1.0948949950201653e+01 1.2709892719156485e+01 0 0 0
809 2 9.9550141069366642e+00 1.0402257867181838e+01 1.2394923830825428e+01 0 0 0
590 2 1.1270029786968552e+01 8.6530004742293110e-01 1.4440078314785376e+01 0 0 0
505 1 2.9926087612586203e+00 1.2764502953726919e+00 1.4164372920102297e+01 0 0 0
506 2 3.4586899680810150e+00 1.8360125371211460e+00 1.4827366095991957e+01 0 0 0
574 1 9.5990772848865280e-01 5.4417276933427705e-01 1.0995931000916263e+01 0 0 0
508 1 3.6953404966638992e-01 1.3523564275518676e+00 1.4480946502312486e+01 0 0 0
752 2 3.2210701524894230e+00 9.2059266999696803e+00 1.0463904263031671e+01 0 0 0
510 2 1.3145655961164975e+00 1.2423311027752217e+00 1.4232162983431616e+01 0 0 0
511 1 -3.8954045161945903e+00 6.7769809870870468e+00 1.4592892741318385e+01 0 0 0
512 2 -4.1430242290734522e+00 5.9573966031283367e+00 1.4093109528756809e+01 0 0 0
513 2 -3.9723940171680860e+00 6.4268025698972533e+00 1.5434017026672883e+01 0 0 0
514 1 -1.0512717536079750e+00 6.3447647291686105e+00 1.4467427534907250e+01 0 0 0
515 2 -9.2334389416564022e-01 5.5675153298090425e+00 1.5070422048799086e+01 0 0 0
516 2 -1.9342628204212353e+00 6.6097999986859808e+00 1.4772332884834350e+01 0 0 0
20 2 -5.9601119713714059e+00 3.7355088083094214e+00 1.9260898848501277e+01 0 0 -1
519 2 2.0470748407959762e+00 5.6103842377970254e+00 1.8240787936883045e+01 0 0 0
190 1 2.6691580197080400e-01 1.0336746721562472e+01 9.9223530395564961e+00 0 0 0
522 2 2.3797418858611521e+00 5.5004281208744619e+00 1.0745558212622912e+01 0 0 0
832 1 6.3610321689984302e+00 9.9556746024363996e+00 1.4289560674760134e+01 0 0 0
107 2 9.6168642308867422e+00 1.9668892743789912e+00 1.0226284108552427e+01 0 0 0
525 2 -2.1373514826734068e+00 2.4477567286309254e+00 1.0602765978381871e+01 0 0 0
808 1 9.2369381085439954e+00 1.0815187056022680e+01 1.2891806735410217e+01 0 0 0
527 2 -2.7127703143274307e+00 2.3943874735282598e+00 1.8424402524142153e+01 0 0 0
529 1 1.6390864469601238e+00 6.3015619947575781e+00 1.6695255295186463e+01 0 0 0
530 2 1.5189794827531395e+00 5.9735844903172417e+00 1.5767782233713952e+01 0 0 0
531 2 7.1475843492123392e-01 6.5127280655928503e+00 1.7063497244866724e+01 0 0 0
532 1 2.7342335010340468e+00 6.5201651656501873e+00 1.2051393613949802e+01 0 0 0
533 2 3.6952147884313149e+00 6.7040938364099745e+00 1.2058333472187643e+01 0 0 0
534 2 2.6490754576152744e+00 5.9780709962307599e+00 1.2879606038206925e+01 0 0 0
535 1 -1.7692619166160428e+00 1.2499161410122241e+00 1.2008746004441265e+01 0 0 0
106 1 9.3645423820323277e+00 2.8044123782915964e+00 9.7878271865519348e+00 0 0 0
537 2 -8.3878820893229467e-01 9.8441269574687962e-01 1.1722539185283312e+01 0 0 0
538 1 -2.8987555992311580e+00 1.6336772441704632e+00 1.6993361328477185e+01 0 0 0
539 2 -3.8741732632491654e+00 1.3428016279811397e+00 1.7088024852979508e+01 0 0 0
540 2 -2.8053325516416807e+00 1.8634719965997193e+00 1.6071081939018228e+01 0 0 0
541 1 2.7174216710297241e+00 2.8027603046802492e+00 1.1878539884194383e+01 0 0 0
542 2 2.9005098416602335e+00 2.2074799332510358e+00 1.2629160781072402e+01 0 0 0
543 2 3.1552899981150571e+00 2.3915625809333685e+00 1.1155344736095905e+01 0 0 0
544 1 1.1970020517697293e+00 2.5718194193126029e+00 1.6799334775208834e+01 0 0 0
545 2 1.2043876042808321e+00 2.0976351275859275e+00 1.7668432676466701e+01 0 0 0
546 2 8.4238391922427702e-01 1.9390406888707028e+00 1.6068279864233169e+01 0 0 0
547 1 -3.4488723260855441e+00 4.7814361672449666e+00 1.6768407106999206e+01 0 0 0
548 2 -4.1487684079807039e+00 4.1637735071201751e+00 1.6487310604683294e+01 0 0 0
549 2 -3.7508502080213928e+00 5.0228379296100041e+00 1.7703002750623916e+01 0 0 0
550 1 -1.5953889030260067e+00 5.4370645992387274e+00 1.1902448404217735e+01 0 0 0
551 2 -9.1542078442950903e-01 4.7799303483064586e+00 1.1990102390358183e+01 0 0 0
552 2 -1.4055024862580630e+00 5.9208391248678822e+00 1.2807664068162472e+01 0 0 0
553 1 3.5443805186624058e+00 3.3742308472821438e+00 1.5727022524080903e+01 0 0 0
554 2 2.8166479760893646e+00 3.1481481514984355e+00 1.6347251583997860e+01 0 0 0
555 2 4.2419740813246536e+00 3.8195298487551104e+00 1.6269115990734235e+01 0 0 0
556 1 3.4613092573861870e-01 3.5421126962579854e+00 1.2755126848842982e+01 0 0 0
557 2 1.0322295347362509e+00 3.3080158903251946e+00 1.2170050632494830e+01 0 0 0
558 2 5.6542156188397641e-02 2.7721636431439696e+00 1.3272155983725764e+01 0 0 0
559 1 -3.8782991251398551e+00 4.3772431854185632e+00 1.3103438815503408e+01 0 0 0
560 2 -3.1579579738265946e+00 4.7300943682746839e+00 1.2541796186448881e+01 0 0 0
561 2 -3.4747257936915910e+00 3.7130778934880935e+00 1.3684961750455365e+01 0 0 0
562 1 -8.8930822114121888e-01 4.1555441277697600e+00 1.6028036845434215e+01 0 0 0
563 2 -8.8134990689714421e-02 3.8692716276371271e+00 1.6538438640274016e+01 0 0 0
564 2 -1.6344667100130597e+00 4.2287129665960128e+00 1.6635917113983055e+01 0 0 0
565 1 5.3502924479167140e+00 6.9818855561859037e+00 1.1074259217607482e+01 0 0 0
566 2 4.7958310577629213e+00 7.5672730462538835e+00 1.0505018307447086e+01 0 0 0
567 2 5.4460344452832565e+00 6.1527487774232945e+00 1.0586737634541725e+01 0 0 0
568 1 -7.5008097231144699e-01 6.9676123244028147e+00 1.7825915547045561e+01 0 0 0
569 2 -9.6914989773167548e-01 6.0512214323563063e+00 1.8226541151680273e+01 0 0 0
570 2 -5.4706813927095777e-01 7.5817590192104483e+00 1.8605515476533526e+01 0 0 0
655 1 3.2860249651848079e+00 2.8254134558460586e-01 1.7833625672485262e+01 0 0 0
572 2 -5.5728210292489662e+00 1.6558866591834178e+00 1.8210483378319637e+01 0 0 0
986 2 1.3560082378464537e+01 9.8372300121738587e-02 1.1028543977866578e+01 0 0 0
740 2 -5.0706741749464612e+00 7.2119430269296725e+00 1.8482826609757609e+01 0 0 0
576 2 1.1080561375922846e+00 1.4107053004327257e+00 1.0535730142300086e+01 0 0 0
577 1 2.0579172504701990e+00 4.9895508174566032e+00 1.4124230888054006e+01 0 0 0
578 2 1.3683260427048598e+00 4.4496393851284193e+00 1.3775938222753535e+01 0 0 0
579 2 2.6706880411708465e+00 4.4179962622873115e+00 1.4684781228636316e+01 0 0 0
580 1 -2.4589742940985313e+00 2.6229751449164955e+00 1.4395951116191840e+01 0 0 0
581 2 -2.1814003018967947e+00 2.1509607528642669e+00 1.3630222679862692e+01 0 0 0
582 2 -1.7097996054157831e+00 3.0402209320613847e+00 1.4829013416527978e+01 0 0 0
593 2 8.9598023616153224e+00 5.0215454009611604e-01 1.4483510268274667e+01 0 0 0
711 2 2.0796612337950284e+00 1.0273845671609752e+01 1.1923758839485503e+01 0 0 0
589 1 1.2226353414892424e+01 1.0035630825070236e+00 1.4378358272367885e+01 0 0 0
520 1 2.2934042684310256e+00 5.0920829033284312e+00 9.8111120180322544e+00 0 0 0
591 2 1.2389950412151522e+01 1.9256248562658385e+00 1.4792342122668179e+01 0 0 0
592 1 9.5480582937489142e+00 1.2390252197584877e+00 1.4722771750647329e+01 0 0 0
332 2 9.5347791878940082e+00 9.4727579869573031e+00 1.8680125444099829e+01 0 0 0
594 2 9.3471035463200494e+00 1.9410169262057588e+00 1.4046059213011263e+01 0 0 0
595 1 5.0064524372338770e+00 6.2931274387081269e+00 1.4938193533865217e+01 0 0 0
596 2 5.0188742096585388e+00 5.8419519917866776e+00 1.5849290726541689e+01 0 0 0
597 2 4.9870404526892758e+00 5.6473099469946009e+00 1.4211342982516033e+01 0 0 0
598 1 7.6500382680977497e+00 6.4316912594020810e+00 1.4271265450233667e+01 0 0 0
599 2 6.7090102895873143e+00 6.6446294338848535e+00 1.4425283772599345e+01 0 0 0
600 2 7.8150460307291159e+00 5.9683971856325595e+00 1.3435363589792345e+01 0 0 0
518 2 1.1996530866303088e+00 4.7400884158934486e+00 1.9194164450812551e+01 0 0 -1
603 2 1.1118248040299529e+01 5.2376414135219145e+00 1.8328530761057962e+01 0 0 0
834 2 5.6170243881912674e+00 1.0431954134895095e+01 1.3911490407534927e+01 0 0 0
605 2 1.1501483742775044e+01 5.1479007079816590e+00 1.0705379296685738e+01 0 0 0
105 2 3.4911858314086883e+00 1.8876099787889451e+00 1.8775270720955085e+01 0 0 0
807 2 1.2611758327560773e+01 1.0146074956047849e+01 1.5510757719069893e+01 0 0 0
620 2 6.2494214601504439e+00 2.6844995208409617e-01 1.2070772745771263e+01 0 0 0
609 2 6.6044627744876792e+00 2.1338509878247431e+00 1.1024102754544908e+01 0 0 0
571 1 -5.2325270143316613e+00 8.9060783877415584e-01 1.7721845463256074e+01 0 0 0
611 2 6.4454952088302422e+00 2.1010687538964175e+00 1.8553959804531011e+01 0 0 0
613 1 1.0475997720029586e+01 6.4777646666011854e+00 1.6861713856484855e+01 0 0 0
614 2 1.1176789926655223e+01 7.1355463279817650e+00 1.6990055804888314e+01 0 0 0
615 2 9.5931039503498123e+00 6.9293457290382339e+00 1.6810055429982398e+01 0 0 0
616 1 1.1421509057076566e+01 6.6944627318980761e+00 1.1834999265839016e+01 0 0 0
617 2 1.1359409936443509e+01 6.3801138258220469e+00 1.2790873537922540e+01 0 0 0