LAMMPS data file via write_data, version 3 Mar 2020, timestep = 0

2016 atoms
2 atom types

0.0000000000000000e+00 1.7933730201760596e+01 xlo xhi
-1.2505675140923884e+00 4.6246727491009153e+01 ylo yhi
0.0000000000000000e+00 1.9075940106898830e+01 zlo zhi
4.1551666939410412e-02 -6.6437553990145624e+00 -2.2201492165450532e-02 xy xz yz

Masses

1 16
2 2

Atoms # atomic

579 2 5.0062426963138735e+00 3.2399943025259770e+00 1.5284222883069948e+01 0 0 0
223 1 4.4828231621614973e+00 6.9310914175972016e+00 4.3433745938449858e-01 -2 0 -1
995 2 8.6492258058218425e+00 5.6236753148976399e+00 1.0470095973939342e+01 3 0 1
654 2 1.4096534966897108e+01 6.9485788712911276e+00 6.3257519057281391e+00 -2 0 0
394 1 1.2608513956553541e+01 3.9443536324070037e+00 1.9997805615362210e+00 -3 0 -3
578 2 4.2153282458178172e+00 4.2774960590021598e+00 1.5982621735854554e+01 0 0 0
929 2 -1.3887668027687017e+00 5.7695648832223680e+00 1.1911989029662347e+01 1 0 0
522 2 7.6087919134601449e+00 -6.0659167298183247e-01 9.1324082559485404e+00 -5 0 -2
705 2 1.0035181894120811e+01 5.7022102774494803e+00 1.8136772123818279e+01 -3 0 -1
302 2 7.9984221922721419e+00 6.7194983758191063e+00 1.2317472381898757e+00 0 0 0
299 2 -5.3709323395706798e+00 2.3550864552476511e+00 1.6266361965188999e+01 -2 0 -2
761 2 9.4123872064322835e+00 -9.4387202921087221e-01 3.5196891381153783e-01 -3 0 2
962 2 1.7933580847119517e+00 -2.6020132561463294e-02 1.4390960817500909e+01 -3 0 -1
406 1 1.8324696363414716e+00 2.8416746919286142e+00 5.5542165446821006e+00 -2 0 -2
615 2 2.9662116200343913e-01 -4.3637718288555294e-01 1.9013859054644701e+01 -2 0 -1
596 2 -1.8095503017101977e+00 6.6197342014392762e+00 6.6610226229503091e+00 3 0 -2
229 1 2.4114521837147955e+00 -1.1986584789651316e+00 6.6069860767588073e+00 0 0 -2
589 1 -3.0487202410416154e+00 1.1051057566689249e+00 1.4487040438115232e+01 -4 0 -1
881 2 9.4349341598463887e+00 9.2643182914391842e-01 8.4457038029626794e+00 -3 0 2
319 1 1.1742016205250135e+01 -1.9002610226118888e-01 1.3906952616748731e+01 -4 0 -3
53 2 7.9762414218959261e+00 2.4650115276651734e+00 2.3478196976285410e+00 2 0 0
176 2 4.7194662678610433e+00 -2.5245809746761638e-01 1.3732868054571728e+01 -5 0 1
609 2 6.0604361977317946e+00 2.1632837222196315e+00 5.7869357143022411e+00 -3 0 0
1583 2 -1.2500786929573615e+00 4.7842594005513943e+00 1.4703274511116785e+01 0 1 1
122 2 1.1585497768779334e+01 7.0749229480938300e+00 1.5600207164123775e+01 -2 0 -1
991 1 1.3955184569420524e+01 -4.7644057779241855e-02 9.8005451022113981e+00 1 0 1
407 2 2.8391498402041302e+00 2.7913603907441225e+00 5.5405047995130445e+00 -2 0 -2
707 2 -2.3527756792633103e+00 4.7725443499788565e+00 1.7282320007557818e+01 -1 0 -1
972 2 -2.1980069096440413e-01 7.8192506065687635e+00 4.0569005600544372e+00 0 0 1
448 1 3.0333742603067968e+00 6.3128558863175588e+00 1.1572607253415123e+01 -1 0 1
244 1 -3.8739816127867628e+00 3.6137639526406522e+00 1.2782133534962636e+01 -3 0 -4
4 1 9.7254650653221253e-01 1.0285377079998536e+01 5.5315974986228786e+00 1 0 0
709 1 1.6371317225644084e+00 9.0048912091498359e+00 1.3052036778560957e+01 -3 0 -2
760 1 8.6975059490097184e+00 -2.3294888566006478e-01 2.5389513607822684e-01 -3 0 2
528 2 4.2803084343630440e+00 -4.4374402942764024e-01 4.3273603589572547e+00 -2 0 -1
301 1 8.6716712087495260e+00 6.9243120860970997e+00 5.0071496917385161e-01 0 0 0
636 2 1.4349289637323025e+01 1.0414379600738185e+01 8.1507601106262548e+00 0 0 -2
845 2 6.8279568240330812e+00 -3.9993483164555010e-01 1.2616057907725182e+01 1 0 1
463 1 1.6651206400903229e-01 7.4291257170341769e+00 8.7085937083558953e+00 2 0 0
449 2 3.9676325042298957e+00 6.2023765318304420e+00 1.1441694720946261e+01 -1 0 1
524 2 2.4953166075237849e+00 4.1811916780513769e+00 1.3602145038880645e+01 -2 0 -4
617 2 2.6727291364494246e+00 9.1378510388177929e+00 9.3187306365646521e+00 -2 0 -1
523 1 1.8711191748049192e+00 4.9967567301203655e+00 1.3523167503050162e+01 -2 0 -4
658 1 9.8064659440591884e-01 2.1884228951113118e+00 1.1156513886061218e+01 -1 0 -2
206 2 4.6836507611479830e+00 4.9077536648495395e+00 8.0444064658699723e+00 3 0 0
96 2 1.4606692048373818e+01 3.5917611479918525e+00 9.1929556706142659e+00 -2 0 -1
441 2 -1.9878928249035575e+00 9.2969374506961273e+00 1.6132585782651130e+01 -2 0 -1
151 1 8.6160966728361803e+00 3.4718834709204645e+00 5.1069387475419878e+00 3 0 0
781 1 1.1306896175017296e+00 3.6191274908938338e+00 2.5086468664921853e+00 -2 0 -2
880 1 9.4737092369150027e+00 1.8530072884132656e+00 8.7320274785433938e+00 -3 0 2
626 2 3.0889804761899144e+00 2.0308372024883004e+00 1.3575065475833487e+01 0 0 -1
296 2 1.5243381818322263e+01 1.0444770054186062e+01 1.7029377039949976e+00 1 0 3
703 1 1.0691926472010437e+01 4.9879835901107112e+00 1.7817070296979491e+01 -3 0 -1
382 1 6.8473762756285756e+00 7.1948775027304581e+00 1.6034860907421660e+01 -2 0 0
711 2 2.1799468900500889e+00 9.0922665329054340e+00 1.2276670673389496e+01 -3 0 -2
949 1 -4.2172100616085988e+00 3.5434337561056797e+00 1.8955168466683890e+01 -1 0 1
54 2 9.5783212456253555e+00 2.1727673678188046e+00 2.6773632152356099e+00 2 0 0
277 1 1.0243166703048265e+01 5.1957163276098157e+00 6.5653164693089803e+00 -4 0 -1
689 2 1.7764420958667517e+00 2.3810475305797962e+00 7.1285765012045257e+00 -2 0 0
279 2 9.3650582989295934e+00 4.8858381811214322e+00 6.8927239827621110e+00 -4 0 -1
392 2 -5.5805440867718747e-01 6.8174907340063360e+00 1.6521046988142718e+01 -1 0 -1
652 1 1.4830806901807193e+01 7.5738301327133932e+00 5.9938284535646567e+00 -2 0 0
52 1 8.8519230432287994e+00 2.0790258633483631e+00 2.0375004522050997e+00 2 0 0
356 2 -3.6459087539141448e+00 8.9647224880546794e+00 1.7893570010721451e+01 -4 0 -3
477 2 8.5225799009388048e+00 1.9097892186409284e+00 1.4948360593489630e+01 -1 0 2
500 2 -3.5344823359026516e+00 -2.5189030663133394e-01 1.8286478035844919e+01 1 0 0
160 1 3.2887540278875824e+00 9.2708133392767422e+00 1.0839636834740743e+01 1 0 -5
875 2 1.1400142247198602e+01 8.4995488284646115e+00 1.1488374759023985e+01 -3 0 1
846 2 7.7813081486973603e+00 6.2574053359629977e-01 1.1943397006157024e+01 1 0 1
810 2 8.6791889468087877e+00 3.3801695949829025e+00 8.1378858266469241e+00 -4 0 -1
930 2 -1.9636585860693565e+00 6.9430583800676615e+00 1.1045001264233397e+01 1 0 0
702 2 6.0854812118698298e+00 1.5631387473729625e+00 1.4891581031026488e+01 -3 0 -3
501 2 -3.8719429895069597e+00 7.2024506546088451e-01 1.7139136968343823e+01 1 0 0
625 1 3.2395555337544666e+00 2.7559525321273846e+00 1.2964375772798798e+01 0 0 -1
748 1 4.9265763507304818e+00 9.3558255842860110e+00 1.6543097381071462e+01 -3 0 1
874 1 1.0736246148762696e+01 9.2372681345873282e+00 1.1535000522276372e+01 -3 0 1
384 2 6.8719054099665104e+00 6.4454526449354770e+00 1.6657186617981075e+01 -2 0 0
245 2 -3.2969680113548350e+00 3.7451969205450695e+00 1.3593264721093448e+01 -3 0 -4
622 1 -1.0722729445868229e+00 3.6515981507518411e+00 1.7817857845004358e+01 -2 0 -2
624 2 -3.7396425207372630e-01 3.4059714658250027e+00 1.7110793285425533e+01 -2 0 -2
179 2 4.1129502235014934e+00 4.5752049764645006e+00 1.8815685054126792e+01 -3 0 -1
520 1 8.0392084097731260e+00 -3.0940587491377369e-01 8.3340516005883405e+00 -5 0 -2
621 2 9.0203946855723256e+00 7.7595331521659254e+00 1.8852694592791863e+01 -4 0 -1
697 1 1.2801838287793379e+01 7.0685576548285738e+00 5.8612321901872011e-01 2 0 4
838 1 1.2257882861841862e+01 9.6773004346280835e+00 1.0168193549427740e-01 -1 0 -2
600 2 -8.9877622646251165e-01 4.5539224859457295e-01 1.0244230322822860e+01 -3 0 1
49 1 1.0737408251529626e+01 5.2643360554486787e+00 1.0813499574316715e+01 -1 0 0
33 2 3.7531003402578547e+00 1.0071555813774848e+01 7.8031356680000352e-01 -4 0 -4
464 2 8.4073644679941228e-01 8.0125448884147712e+00 8.3526529778342855e+00 2 0 0
393 2 -6.5768833757204082e-01 6.8532170780104096e+00 1.4930659388453279e+01 -1 0 -1
843 2 -1.7004104681097969e+00 -5.4602649890615207e-01 1.6186994949953789e+01 -5 0 -5
671 2 -3.4472833159480132e-01 3.9475245780553281e-01 6.2579523418061669e+00 -3 0 -1
135 2 -1.0369561893434094e+00 2.5605438770339890e+00 7.5588178855703809e+00 1 0 -1
214 1 1.6226738375518991e+01 5.6188757273884411e+00 2.0311948725604942e+00 -1 0 -2
336 2 5.6047634324297597e+00 8.2480263895293220e+00 9.4044543968965719e+00 -2 0 -2
598 1 -1.3995696675699487e+00 7.3716254924438251e-01 9.4256575898474821e+00 -3 0 1
120 2 3.9465174171018575e+00 6.7175679691073480e+00 2.2660939740254893e+00 -2 0 -2
858 2 1.3474364839676738e+01 5.1019407873382638e+00 7.5899700957091669e+00 -2 0 -3
6 2 1.8138791578468996e+00 1.0430391090972439e+01 5.9743241423735443e+00 1 0 0
753 2 1.1891896937744086e+00 6.5506102891389366e+00 8.9494266062329264e-01 0 0 3
527 2 3.0883705956602516e+00 1.7709955751043305e-01 5.2728224212069508e+00 -2 0 0
119 2 3.9200324614982773e+00 7.6641415061070983e+00 3.5096785092772307e+00 -2 0 -2
525 2 1.7702229766662541e+00 5.2896030389126247e+00 1.4491291500152581e+01 -2 0 -4
495 2 -9.3568364096051582e-01 8.4451491392116704e+00 9.5156542497343217e+00 -3 0 -2
971 2 1.1304754732152416e+00 7.0970033219464916e+00 4.6262653428483409e+00 0 0 1
919 1 1.1491081689465471e+01 -7.0200206528654885e-02 8.5307520340836653e+00 0 0 -2
212 2 1.1465116172387726e+01 3.8117023225584230e+00 6.3715946383451607e+00 -5 0 -2
701 2 4.9477051376382395e+00 1.1248584176529839e+00 1.5738407967083971e+01 -3 0 -3
5 2 9.0666200184490053e-01 9.3185017345443910e+00 5.2517722450510460e+00 1 0 0
470 2 1.4198863417122823e+01 6.4546036716400779e-01 3.5114310481029509e+00 -7 0 -2
471 2 1.4655993081168432e+01 4.3626150431238431e-01 2.1228694132587211e+00 -6 0 -2
708 2 -2.6024572509438135e+00 6.2448769273304308e+00 1.6657678514611217e+01 -1 0 -1
750 2 4.9405826249928122e+00 9.5731254562279773e+00 1.7484512427247033e+01 -3 0 1
46 1 9.6502708973739075e+00 4.8353398552166045e+00 2.9470902957250074e+00 -3 0 0
502 1 4.6814974580754729e+00 -1.6234695079065053e-02 1.0517279012709611e+01 0 0 -1
856 1 1.3233747397282194e+01 5.7489160414039349e+00 6.8973254459067945e+00 -2 0 -3
627 2 3.9648269750305873e+00 2.4855271559699470e+00 1.2354142667452265e+01 0 0 -1
111 2 2.4167382103532615e+00 7.4599986373495275e-01 1.6185393697050635e+01 1 0 -4
869 2 1.3115767985618808e+01 6.3598856820776417e+00 1.2121035986012640e+01 1 0 0
16 1 -1.9817770911141608e-01 4.6427068676322119e+00 1.1865846782811653e+01 0 0 1
178 1 4.0862454728901172e+00 5.5213362867705200e+00 1.8681081859312915e+01 -3 0 -1
974 2 1.0624445485240127e+01 6.9468889796313782e-01 1.7506831856985357e+01 -4 0 -2
118 1 3.6160814089421978e+00 6.7685121603444607e+00 3.1662349980812139e+00 -2 0 -2
922 1 1.9647257428649709e+00 5.5005065450980553e+00 9.0529099137454487e+00 -3 0 -3
623 2 -1.1860929877778723e+00 2.8855288829048860e+00 1.8337030852769757e+01 -2 0 -2
1668 2 1.7593074128491715e+00 2.3830143248496696e+00 1.1683675079512129e+01 -1 1 -2
644 2 1.3309365926820355e+01 2.0166303239134837e+00 1.2592535595670080e+01 -4 0 -3
539 2 3.3197137322276529e+00 9.0881590718146477e-01 2.8432199637005868e+00 -4 0 -3
985 1 1.4959511920278198e+01 1.0598655512262425e+01 1.7417905975139512e-02 -3 0 -2
239 2 6.2913230083826015e+00 6.3521541257024206e+00 1.0203637028819340e+01 0 0 0
716 2 6.2908961602340714e+00 2.8279644255162228e+00 3.2276700632411632e+00 1 0 2
717 2 6.0009501922360640e+00 2.7543380116548901e+00 1.6075557824169737e+00 1 0 2
240 2 4.8800097845815422e+00 6.3791101301282449e+00 9.6777813905501588e+00 0 0 0
560 2 7.4533474748040849e+00 8.3636372516263302e-01 5.1589305648045514e+00 -2 0 1
17 2 5.3836080355436788e-01 4.8211043426041744e+00 1.2504527818256928e+01 0 0 1
216 2 1.7216282021682662e+01 5.7728148481709800e+00 2.0302103549972772e+00 -1 0 -2
668 2 5.8219437881419394e+00 8.1953901082671834e+00 1.3069981906251003e+01 -3 0 -3
645 2 1.2533051768296467e+01 1.7195881037767555e+00 1.1376530070066842e+01 -4 0 -3
613 1 -6.3428802658811723e-01 -3.5542081754187893e-01 1.8717404899874197e+01 -2 0 -1
246 2 1.3436751566177609e+01 4.3769996335868386e+00 1.2790072365349461e+01 -4 0 -4
238 1 5.3825637204011638e+00 6.6940591916852163e+00 1.0428150346863573e+01 0 0 0
687 2 1.7104892814544326e+00 -8.7907522354837708e-01 9.5758742291273684e+00 -3 0 0
715 1 6.5656462056233265e+00 3.1290014339444205e+00 2.3437872719827721e+00 1 0 2
115 1 -5.3538615372463703e+00 7.0923548597286032e+00 1.8397689422689471e+01 -4 0 -5
426 2 1.5312151478768891e+01 2.9018215193606016e+00 2.4606078129718564e-01 -2 0 1
494 2 -1.3247925676555314e+00 9.8538728785863263e+00 9.9694974918892605e+00 -3 0 -2
512 2 8.2636236943622876e+00 -1.0759820783556107e-01 1.5944582746910273e+01 1 0 0
620 2 7.8073718852537173e+00 6.7982848376099163e+00 1.9007642719755207e+01 -4 0 -1
933 2 5.7172805527340476e-01 2.8933608387301026e+00 1.5316507028089068e+01 -2 0 -1
857 2 1.2648597620780450e+01 6.2856206537238419e+00 7.4683610620226348e+00 -2 0 -3
868 1 1.2409787953018483e+01 5.9557597033994414e+00 1.2656647163842301e+01 1 0 0
614 2 -1.0528847061487756e+00 -1.2238742098164122e+00 1.9014416221345073e+01 -2 0 -1
18 2 1.3041672985704533e-01 3.8147500517924406e+00 1.1550141321978712e+01 0 0 1
619 1 8.7196696360752597e+00 6.8480656518985192e+00 1.8702108854040148e+01 -4 0 -1
184 1 5.0147944972581744e+00 1.7603579411422725e+00 7.6272771339506251e-01 -4 0 -6
785 2 1.5459785154427506e+01 2.2586003589866630e+00 3.1006640320859562e+00 -4 0 -2
870 2 1.2659478049360512e+01 6.0435950671103553e+00 1.3596763895120768e+01 1 0 0
211 1 1.1659937242628985e+01 2.8559744805247300e+00 6.0893090942256567e+00 -5 0 -2
387 2 -4.0475858064600301e-02 5.5573021142902057e+00 5.6372587062807789e+00 0 0 -2
289 1 5.9791692200364572e+00 9.7318749221655860e+00 6.0818743559289379e+00 0 0 3
643 1 1.2990283302055992e+01 1.2155520379442759e+00 1.2111851191401394e+01 -4 0 -3
591 2 -2.2275777407872499e+00 1.6034111463748140e+00 1.4350303470618535e+01 -4 0 -1
101 2 6.4202298684778478e+00 9.5698287680916465e+00 1.1176042498618456e+01 -1 0 -1
175 1 5.2960838137559243e+00 -9.2987900178547445e-01 1.3243890400776239e+01 -5 0 1
116 2 -5.9285673542294770e+00 6.3399873692843922e+00 1.8072605534387996e+01 -4 0 -5
224 2 3.8751271233677675e+00 7.6709779624210146e+00 4.9976617801633538e-01 -2 0 -1
345 2 -4.5376745931288642e+00 -1.1872953902525225e+00 1.6268822834401437e+01 -1 0 1
48 2 1.0238612150313463e+01 5.5587229065766506e+00 3.0206615424112608e+00 -3 0 0
117 2 -4.7558488034451019e+00 7.3641719919906716e+00 1.7685434905935917e+01 -4 0 -5
931 1 1.0550902899481516e+00 3.2071893879052391e+00 1.6133755180910704e+01 -2 0 -1
749 2 5.6046519865072106e+00 8.6330185082642217e+00 1.6544290834271298e+01 -3 0 1
385 1 7.2860117884950037e-01 5.1483375874240718e+00 5.1622378237090603e+00 0 0 -2
837 2 -1.4163684744876752e+00 7.6215454159496350e+00 1.2970601483100173e+01 -1 0 1
961 1 2.6763860828299224e+00 2.5842447906054700e-01 1.4624718471069434e+01 -3 0 -1
42 2 3.2869740732416290e+00 5.7370571093735361e+00 5.9543726721675245e+00 -2 0 3
726 2 -2.9019310635928357e+00 3.7141241640648506e+00 1.1305705383520303e+01 2 0 1
746 2 -6.5457121970041090e+00 8.3765816981909005e+00 1.8970017170270371e+01 -2 0 0
222 2 -8.9138034280419642e-01 7.4261663534396511e+00 1.8479137865995796e+01 -2 0 -3
1002 2 1.1550381008556714e+01 2.2513467763169617e+00 4.2449220848358999e+00 -1 0 1
641 2 9.6458030189884685e+00 8.8262153265585539e+00 1.0163700204777774e+01 3 0 -1
618 2 2.1963435162455727e+00 9.9916166096666608e+00 8.1637145264415469e+00 -2 0 -1
41 2 2.4862754831361307e+00 6.2420913764027910e+00 7.1589557087469702e+00 -2 0 3
667 1 5.5897015255370031e+00 7.4520610081752263e+00 1.3669925144498071e+01 -3 0 -3
812 2 1.1494950069957762e+01 3.7088551895474478e+00 1.0358841033869160e+01 -2 0 -1
932 2 1.6002270269255643e+00 2.5130817707067084e+00 1.6581760643776718e+01 -2 0 -1
952 1 1.0392892699792677e+01 7.4734371080166078e+00 5.5264024644312117e+00 -1 0 1
213 2 1.1789992941736747e+01 2.4013558602982403e+00 6.9343469693631894e+00 -5 0 -2
583 1 -5.0499285738506510e+00 9.7427962427716075e+00 1.5077953124783166e+01 -4 0 -4
840 2 1.3230571246124459e+01 9.8982278111041335e+00 4.5357291748968291e-02 -1 0 -2
338 2 3.0544206547392854e+00 8.3365209329708296e+00 5.5786702788126812e+00 -1 0 -1
938 2 3.6557484196957599e+00 8.2697043529277057e+00 1.5570905704326638e+01 1 0 0
969 2 5.1150364954972352e+00 2.6052561198839954e+00 8.7740025441807052e+00 -1 0 1
545 2 -3.2814327336044258e-01 1.8264806467677852e-01 1.4307079843266678e+01 2 0 1
386 2 4.1183996646899446e-01 5.0600066174746541e+00 4.1991190285398581e+00 0 0 -2
937 1 3.2488966133662505e+00 7.6253361320500908e+00 1.4903480159357036e+01 1 0 1
40 1 3.0457735384904141e+00 6.5371081838088854e+00 6.4509438662685668e+00 -2 0 3
786 2 1.6559246368770523e+01 3.4419367342085971e+00 2.9722956256281732e+00 -4 0 -2
714 2 -1.2882484165168182e+00 -9.9906486194793620e-01 1.2077079363348981e+01 0 0 3
724 1 -2.5054705538457243e+00 3.4327020966595709e+00 1.0448481648638070e+01 2 0 1
784 1 1.6002393924158163e+01 2.9880832286410435e+00 3.6077002928753901e+00 -4 0 -2
967 1 4.3388206720641413e+00 3.2293960945742688e+00 8.9758978220558987e+00 -1 0 1
553 1 9.2506484561760001e+00 3.7079711324290487e+00 1.5572853751916108e+01 -5 0 -2
681 2 6.5564250965308526e+00 4.4251515427124870e+00 1.6290258933503246e+01 -3 0 -3
649 1 6.4038793073668110e+00 2.0269679893526344e+00 7.7646651965780942e+00 -4 0 0
650 2 6.9557679839629465e+00 1.2567362292033017e+00 7.8208956994710164e+00 -4 0 0
51 2 1.1148648038221198e+01 5.9230894792879143e+00 1.0179937592506274e+01 -1 0 0
36 2 6.0025782127454463e-01 1.7196476642302261e+00 5.0499377592075971e+00 -1 0 0
945 2 3.8031150953592121e+00 5.0455930049171727e+00 4.2717085071415211e+00 0 0 3
673 1 1.1776962290163763e+01 6.7975693863841258e+00 3.1544026888769072e+00 -1 0 -3
939 2 3.1572079523303467e+00 6.7522386538416672e+00 1.5409373073839543e+01 1 0 0
397 1 1.3938734457302418e+01 5.2391051440072332e+00 4.0980065367156850e+00 2 0 0
127 1 3.8076874909591236e+00 2.8461755540393403e+00 1.9057980129072337e+01 -2 0 -2
128 2 3.2692407369976451e+00 2.4196964625262716e+00 1.8397329461684944e+01 -2 0 -2
1407 2 1.4791481388638131e+01 4.8824500171288419e+00 3.7312315043547772e+00 2 0 0
34 1 -2.1092568571021575e-01 1.2875749898628661e+00 4.8503093544380436e+00 -1 0 0
928 1 -2.0705287333243581e+00 6.4837107689856088e+00 1.1893383747555019e+01 1 0 0
777 2 1.1178555003888132e+01 3.0663432862892348e-01 2.7102981527534249e+00 -2 0 2
152 2 8.7582268411494244e+00 3.9561181277378683e+00 4.3286512486504689e+00 3 0 0
439 1 -1.4416025980962042e+00 9.8626102410222405e+00 1.5617871919938146e+01 -2 0 -2
350 2 1.1705340371601446e+01 1.8432855025285422e-01 7.2938594937058920e-01 2 0 4
149 2 1.0539240078084722e+00 1.0372726375121804e+01 2.3765011116774533e+00 -3 0 0
685 1 2.1620788200060939e+00 -1.4260051342624758e-02 9.7213000217505190e+00 -3 0 1
783 2 1.5003306639486582e+00 4.4338419359540735e+00 2.1246263690518505e+00 -2 0 -2
876 2 1.0229032455530849e+01 8.8420168847720984e+00 1.2279651978363951e+01 -3 0 1
994 1 7.9690593910326912e+00 6.0454670668079658e+00 9.9229636685620761e+00 3 0 1
725 2 -1.6336437897964824e+00 3.7110316484854096e+00 1.0324393094297621e+01 2 0 1
921 2 1.1642543063600415e+01 -3.5846252473488927e-01 7.6221668343728135e+00 0 0 -2
129 2 1.0013350878157482e+01 2.7146573680359429e+00 8.3051235162066983e-01 -2 0 -1
559 1 8.4500913518086804e+00 8.0629594033673602e-01 5.1768436702759821e+00 -2 0 1
173 2 5.4838622851045633e+00 3.7001674358960548e+00 1.1879803006030770e+01 -1 0 -2
1664 2 5.8555900386716448e+00 5.7681023614422342e+00 1.2975942020155891e+01 -3 1 -1
335 2 5.8535368433817627e+00 9.0385570543322675e+00 8.1336533146755841e+00 -2 0 -2
548 2 9.5815739627181067e+00 7.9807750799834842e+00 1.4116927290164620e+01 -3 0 -4
462 2 1.0649024648148540e+01 6.3442131012838958e+00 8.0467941228911055e+00 -4 0 -2
651 2 7.0294947282659699e+00 2.7681291427342147e+00 7.7913754430207174e+00 -5 0 0
996 2 8.3462486350206664e+00 6.9399236231387658e+00 9.6891080457839820e+00 3 0 1
611 2 -4.4230313049125431e+00 5.3241525851771403e+00 1.5846024450432848e+01 0 0 2
634 1 1.4882433190574927e+01 9.7414170754138301e+00 7.7268704277861024e+00 0 0 -2
839 2 1.1854274078438301e+01 1.0443005178017986e+01 5.5426520939579882e-01 -1 0 -2
547 1 9.1948053335597955e+00 7.7624897256110348e+00 1.3257374067086866e+01 -3 0 -4
904 1 1.4038991264305611e-01 1.0316817275227548e+01 1.8621528075280757e+01 -3 0 1
497 2 7.2096307634862118e+00 4.5602726855434161e+00 5.3603262726812089e+00 0 0 1
498 2 6.6725761527971859e+00 5.3395433816658908e+00 6.5109027732317069e+00 0 0 1
395 2 1.2977030969987212e+01 4.3493226030202861e+00 2.8036495168354061e+00 -3 0 -3
924 2 2.3468732224383708e+00 4.6161274459869803e+00 8.8883319881469038e+00 -3 0 -3
349 1 1.2088141689451188e+01 7.6623000968811272e-01 6.6846087799222090e-02 2 0 4
679 1 7.2339384562665723e+00 4.5976337933290043e+00 1.6905932484799770e+01 -3 0 -3
398 2 1.3817104024889371e+01 5.0756724125033559e+00 5.0803250958237731e+00 2 0 0
540 2 2.3033794189736012e+00 5.8413527091717388e-01 1.7339962920513512e+00 -4 0 -3
844 1 7.7724981391440320e+00 -1.3854963803590326e-01 1.2565288856249300e+01 1 0 1
321 2 1.2071890440469463e+01 5.0495362695337942e-01 1.3310056303750788e+01 -4 0 -3
943 1 3.9702495403449207e+00 4.4318501188872821e+00 4.9770786232965367e+00 0 0 3
19 1 6.5625889091632255e+00 8.6661673353845536e+00 2.2178449206828437e+00 -3 0 -3
829 1 1.6045011074291491e+01 7.9005857734386176e+00 3.5187862194596509e+00 -4 0 0
220 1 -1.8459397778939746e-01 7.6093574716226922e+00 1.7840999401395781e+01 -2 0 -3
172 1 5.3497993454458825e+00 2.8883882848344422e+00 1.1368799014061382e+01 -1 0 -2
298 1 -4.3867526271429682e+00 2.5632843087731056e+00 1.6550486867180680e+01 -2 0 -2
680 2 7.3957435937446894e+00 3.9634758626744082e+00 1.7608337121045206e+01 -3 0 -3
83 2 1.3798338864276886e+01 9.7908676617522215e+00 3.2146251979094855e+00 -1 0 -3
538 1 2.8939242148884725e+00 1.2813599340733641e+00 1.9971859735728352e+00 -4 0 -3
944 2 4.8901005435577751e+00 4.6395267050080440e+00 5.2205260440149015e+00 0 0 3
274 1 1.4770584619103969e+01 -1.5969856149381512e-01 6.2332150748535842e-01 2 0 0
1667 2 1.1328633175628027e+00 1.2506910149075399e+00 1.0902007819839477e+01 -1 1 -2
830 2 1.5579582390493654e+01 7.7719213605775987e+00 4.3445650165978149e+00 -4 0 0
174 2 4.8469353017047805e+00 3.1310063231832714e+00 1.0584127662054806e+01 -1 0 -2
388 1 1.3897170974691383e+01 -5.3163673711650983e-02 5.9163733646891083e+00 -1 0 0
465 2 5.9576781558627578e-01 6.6287839134848321e+00 9.0904973327626628e+00 2 0 0
765 2 -3.9199147980421882e+00 9.6973855661814188e+00 1.3555926687798225e+01 -3 0 -3
460 1 1.1440117389563540e+01 6.7390946993067287e+00 8.4368675880243043e+00 -4 0 -2
607 1 6.0003310531670806e+00 1.7881084579366742e+00 4.9535019348086369e+00 -3 0 0
762 2 8.8697167766861149e+00 4.7324504925007771e-01 9.3111591213352130e-01 -3 0 2
278 2 1.0079822026239912e+01 5.9865830358337604e+00 6.0334524004422558e+00 -4 0 -1
503 2 4.9238424390173732e+00 8.6462556678315128e-01 1.0861930453080541e+01 0 0 0
595 1 -1.0905808333939064e+00 6.0346172298792773e+00 7.0040802312236519e+00 3 0 -2
531 2 9.5979482596099785e+00 -1.0737037697662235e+00 2.9420233635084920e+00 -1 0 0
109 1 2.4856170301969778e+00 1.2310689541576334e+00 1.7048507597561933e+01 1 0 -4
148 1 1.1914312217157028e+00 9.4296930820285372e+00 2.0221748565386766e+00 -3 0 0
953 2 1.0950027011112574e+01 7.4498777197714627e+00 4.7037500657168385e+00 -1 0 1
461 2 1.1310739636157583e+01 7.7366797887663807e+00 8.3251332497315644e+00 -4 0 -2
599 2 -1.6852685153342077e+00 1.6152450220175751e+00 9.6887562039202173e+00 -3 0 1
408 2 1.5546984437266433e+00 3.7524051732714838e+00 5.4527206770429215e+00 -2 0 -2
20 2 6.1972457983772031e+00 7.7318868453395435e+00 2.1633770718394172e+00 -3 0 -3
889 1 1.1222859153333873e+01 -3.5470405501612323e-01 5.5272837137661890e+00 -1 0 0
35 2 -8.1552336434418637e-01 1.9552064508171583e+00 4.3364879609377764e+00 -1 0 0
779 2 5.5411446745985833e+00 9.9566168938190742e+00 1.8944256632062793e+00 1 0 0
927 2 -3.6351752499523666e+00 -3.2126169962343720e-01 1.3103014848205939e+01 2 0 2
475 1 7.8516109114665031e+00 1.1950471718477225e+00 1.4849931434026617e+01 -1 0 2
68 2 8.0553329777621965e+00 8.5296709045338321e+00 1.6213703261123424e+01 -4 0 -3
526 1 3.6768521234430764e+00 3.5580003765991863e-01 4.4733415933442302e+00 -2 0 0
133 1 -7.1242203256969994e-01 3.1892147490325025e+00 8.1767565334328154e+00 1 0 -1
610 1 -5.2852542327584286e+00 5.4178049670540380e+00 1.5347196625065314e+01 0 0 2
675 2 1.2460891729457025e+01 6.1375151444880105e+00 3.3572329134610750e+00 -1 0 -3
747 2 -1.7416066315032991e-01 8.9935287144190905e+00 1.2397129402018388e+00 -2 0 1
300 2 -4.4010710100947490e+00 2.9375392442240793e+00 1.7465958331306499e+01 -2 0 -2
100 1 7.1628343266555188e+00 9.5306093585239413e+00 1.1723947501788331e+01 -1 0 -1
782 2 1.7299972454001002e+00 2.8197844367017701e+00 2.3213844755673017e+00 -2 0 -2
690 2 1.1166246099604180e+00 2.7457435214653203e+00 8.4008856844181334e+00 -2 0 0
561 2 8.6593913704765271e+00 1.7422032068238829e+00 5.1555090631021852e+00 -2 0 1
728 2 8.9980514425493112e+00 5.8710883797755811e+00 1.3226701653842376e+01 0 0 1
113 2 1.1194299648758040e+01 8.4197228562663895e-01 1.5262467568945574e+01 -2 0 -1
530 2 8.6414356736608777e+00 -3.5646289606777648e-01 4.0239053353191769e+00 -1 0 0
670 1 -1.8365390147367711e-01 -1.4881553903201317e-01 7.0548082673255461e+00 -3 0 -1
805 1 8.0102351328031123e+00 9.2149880736118366e+00 4.4635599580805696e+00 -4 0 1
954 2 1.0565412727537430e+01 8.3674074951120261e+00 5.9680646274355276e+00 -1 0 1
67 1 8.6491914324168953e+00 9.2446339029502145e+00 1.6450568764779192e+01 -4 0 -3
727 1 8.6200216447149387e+00 5.0006857022422810e+00 1.3340873137307220e+01 0 0 1
114 2 1.0457310323615344e+01 2.2915874016866544e+00 1.5644428510364577e+01 -2 0 -1
425 2 1.3800162814295252e+01 3.2648642408159834e+00 6.8557255001964201e-01 -2 0 1
544 1 3.0010682306182979e-02 1.0421482305842913e+00 1.3976428129347136e+01 2 0 1
978 2 6.5897570150137197e+00 -6.5382047937524601e-01 1.6951377107722479e+01 -3 0 -1
1001 2 1.1871210720711399e+01 2.8261588881937953e+00 2.7795713944141478e+00 -1 0 1
496 1 6.4681851351212449e+00 5.2007256493025027e+00 5.5576836555318367e+00 0 0 1
655 1 6.0915790285610623e+00 4.8479554749041061e+00 1.2974911504212331e+01 -3 0 -1
337 1 3.4492049767651727e+00 8.9911305513385642e+00 5.0242424529395597e+00 -1 0 -1
185 2 5.3620057305361302e+00 8.7275888836741755e-01 4.9670324587679748e-01 -4 0 -6
221 2 5.4968495181068544e-01 7.1769314266222946e+00 1.8265072253521272e+01 -2 0 -3
642 2 8.0643990226175557e+00 8.9246466688302490e+00 1.0043444798247203e+01 3 0 -1
992 2 -3.0476284957850766e+00 3.3000175905926143e-01 9.6938565860744088e+00 2 0 1
297 2 1.5990552657994787e+01 9.5944265559407000e+00 2.7940202425932865e+00 1 0 3
920 2 1.2356203884399246e+01 5.0233678879275434e-02 8.8517530108465348e+00 0 0 -2
110 2 2.1825446554807497e+00 6.2458368860622593e-01 1.7745706771470818e+01 1 0 -4
768 2 1.1952460372024822e+01 9.7950683634809774e+00 7.1859004394201920e+00 -4 0 -1
47 2 8.7736925376150658e+00 5.1246453809817067e+00 2.6950335083782280e+00 -3 0 0
207 2 4.6807933640544173e+00 6.2671412079837348e+00 7.4778437821620116e+00 3 0 0
808 1 8.2424719194673131e+00 4.1860854151433138e+00 7.8674346713853991e+00 -4 0 -1
21 2 6.9744293084593760e+00 8.6975584264681345e+00 3.0829292163508097e+00 -3 0 -3
577 1 4.9728210551877341e+00 4.2402425757861710e+00 1.5369584538419382e+01 0 0 0
84 2 1.2619023579541066e+01 8.8143329283134157e+00 3.4365600179952107e+00 -1 0 -3
1000 1 1.1368473202020590e+01 2.1027867554265591e+00 3.2773637541202660e+00 -1 0 1
294 2 1.3747227487877765e+01 8.6939527969073858e+00 1.0825531674943058e+01 0 0 -3
390 2 1.2991211539518464e+01 -2.0978952798760608e-01 5.5175402925616943e+00 -1 0 0
635 2 -2.5768934952733717e+00 9.3640523587281450e+00 8.4976441131075742e+00 1 0 -2
763 1 -3.3135303618404248e+00 9.7478972749453181e+00 1.2766489721589972e+01 -3 0 -3
813 2 1.2556165285550666e+01 3.0743360106327202e+00 9.4914544793736333e+00 -2 0 -1
912 2 1.4686961707545219e+01 1.5983739023857049e+00 6.0106735488086294e+00 -2 0 1
549 2 8.3459109068191708e+00 8.2602824802217043e+00 1.3170372242817194e+01 -3 0 -4
334 1 5.8689738880075133e+00 9.0953060710632592e+00 9.1026628481912848e+00 -2 0 -1
31 1 3.1709804984992704e+00 9.3301820822007517e+00 5.2625866088746809e-01 -4 0 -4
65 2 8.4943936533908619e+00 2.0338149691935370e+00 1.0330359040307389e+01 -2 0 -3
809 2 8.1365978405443506e+00 4.8131586725458533e+00 8.6031379666248000e+00 -4 0 -1
866 2 2.1084630791576782e+00 4.5706782762497138e+00 1.6526893018596049e+01 -3 0 -1
94 1 1.3971879700920038e+01 3.6111596184935770e+00 8.4385509523534328e+00 -2 0 -1
225 2 -2.5902495899654379e+00 6.4817539662026951e+00 1.8749477309257916e+01 -2 0 -2
951 2 -3.8782828874853235e+00 4.3406343262673222e+00 1.8475263397517370e+01 -1 0 1
123 2 1.0434979855764659e+01 8.0151864582051164e+00 1.6260079208881784e+01 -2 0 -1
440 2 -1.1398709571893386e+00 9.3017469131886408e+00 1.4883340526764520e+01 -2 0 -2
383 2 6.2706733552155036e+00 6.8265875439256529e+00 1.5377917683459605e+01 -2 0 0
590 2 -3.6455402436869266e+00 1.7085558358485238e+00 1.4971960658506253e+01 -4 0 -1
499 1 -3.5549429892712143e+00 -1.7422260644915188e-01 1.7356868784721758e+01 1 0 1
910 1 1.5197778111998236e+01 2.4136406233141070e+00 6.2605806694279345e+00 -2 0 1
546 2 -9.0148410775631405e-02 8.2859770231745422e-01 1.3000896452681795e+01 2 0 1
806 2 8.6804246091314567e+00 8.4976570024669247e+00 4.6199097149426178e+00 -4 0 1
729 2 7.6528602711455811e+00 4.9674099352000862e+00 1.3141194932509876e+01 0 0 1
612 2 1.2246058372541029e+01 4.5553713425233582e+00 1.5421423330202851e+01 -1 0 1
674 2 1.2021733583341552e+01 7.0100264091422790e+00 2.1414360266086470e+00 -1 0 -3
121 1 1.1030522179769982e+01 7.8570253985129845e+00 1.5503218475537142e+01 -2 0 -1
911 2 1.5472458759242459e+01 2.6929202676047406e+00 5.3865027069463904e+00 -2 0 1
424 1 7.7521724957287041e+00 3.0428395014702829e+00 1.9018333103676216e+01 -2 0 0
811 1 1.1868212134754499e+01 2.8002147768444470e+00 1.0106363391857478e+01 -2 0 -1