LAMMPS data file via write_data, version 3 Mar 2020, timestep = 10650000

2016 atoms
2 atom types

0.0000000000000000e+00 1.7933730201760596e+01 xlo xhi
-3.1636220647804585e+00 4.8159782041663568e+01 ylo yhi
0.0000000000000000e+00 1.9075940106898830e+01 zlo zhi
4.4898830415487222e-02 -6.6437553990145624e+00 -2.2201492165450532e-02 xy xz yz

Masses

1 16
2 2

Atoms # atomic

728 2 1.5161911893222188e+01 8.7572938339278128e+00 2.2139536850382467e-02 1 0 2
1444 1 2.4685794586540308e+00 -3.1222576987816977e+00 2.4233185471645418e+00 1 1 0
1546 1 7.3033013115479939e+00 7.8126852316486151e+00 9.4966104797116291e+00 -1 0 0
1412 2 1.0591968660269123e+01 5.6435898603222912e-01 3.1462559664276792e+00 -1 1 0
1030 1 4.3576726305231599e+00 9.5113695470543824e+00 1.8554844855273778e+01 0 0 -2
1889 2 8.3132091325327657e+00 -2.8800340969721590e+00 6.3169468469295742e+00 -1 1 0
278 2 1.1300586213406744e+01 3.4462327915375299e+00 5.0538769402235859e+00 -4 0 -2
2014 1 7.1263001848145091e-01 -1.5002716720900848e+00 1.5158010999584027e+01 0 1 0
1626 2 6.9631050708444686e+00 4.7093371392520220e+00 8.3884346705456476e+00 0 0 0
347 2 7.6061650473679432e+00 -1.9339075796378511e+00 8.8050333493048729e+00 -1 0 -2
1573 1 8.7622292796726100e+00 4.2750311053417267e+00 1.5588214327521976e+01 0 0 -1
1287 2 1.0253460381323965e+01 -1.3924110595533021e+00 1.5010868837780551e+01 -2 1 0
1419 2 4.2663713521355184e-01 8.5400894918697539e+00 1.6820739695155499e+01 1 1 -1
997 1 9.7689905940376285e+00 3.5250161270362970e+00 2.1170337821646763e+00 0 0 5
766 1 5.1994919503029422e+00 9.1285988457094209e+00 3.6816463972891103e+00 -5 0 -1
816 2 4.7446143854027536e+00 8.1475840624379767e+00 1.2873400625199629e+01 4 0 1
915 2 8.6109558526629115e+00 1.2715230875444847e+00 5.5565472931577640e+00 1 0 2
930 2 5.6939237932252711e+00 3.5788669485558930e+00 1.1816252211211991e+01 0 0 0
319 1 1.5360569076146852e+01 3.0286894710138688e+00 2.3433635133886144e+00 -6 0 -3
746 2 1.4028892192196096e+00 3.8157120024401081e+00 1.4081720242887689e+01 -1 0 2
1473 2 1.1948197031202557e+01 7.0746453474417841e+00 6.9564492057906975e+00 2 1 1
1839 2 3.5484946215501121e+00 -1.4156480399140341e+00 8.4812460744646394e+00 -1 1 -1
1173 2 1.0443845192499774e+01 8.4913370428842896e+00 1.7921921662247257e+01 0 0 -2
501 2 2.9377725696680690e+00 8.5845889459490259e+00 1.5629011380738261e+01 1 0 0
389 2 8.3874992752281852e+00 8.7252118894896586e+00 3.0676500261471205e+00 -2 0 -1
1957 1 -1.1313883777987315e+00 7.1610207454435368e+00 6.3278670898927389e+00 1 1 1
1904 2 -3.8242101256041972e+00 1.4967644388333987e+00 1.6129537139111605e+01 1 1 1
1176 2 1.2998821097075822e+01 8.8784184332484664e+00 8.0048530436654310e+00 0 0 2
838 1 1.5477732925677500e+01 -9.3994461600773471e-01 1.9137645568994381e+00 -2 0 -3
570 2 6.1353104436428252e+00 -2.3288798894963669e-01 3.3966998354255629e+00 1 0 2
1679 2 -1.6679863543695586e+00 6.9077105462304225e+00 1.3490575683490063e+01 0 0 0
1924 1 1.1135067746059445e+01 1.3567902841231136e+00 1.5548775450968321e+01 -2 1 1
1411 1 1.1497295262359547e+01 8.1367381763110735e-01 3.2741106587174671e+00 -1 1 0
1808 2 5.6509117463259226e+00 1.9875103667545853e+00 1.7644418254536420e+00 -1 1 1
122 2 -3.7209886130068068e+00 2.8291691467504396e+00 1.7910121032921744e+01 0 0 -1
1997 2 -1.4748498449891738e+00 6.2844867708180949e+00 8.5253831652114211e+00 0 1 2
215 2 5.7768696899130907e+00 6.5741861047635854e+00 1.7270874069180437e+01 -1 0 -5
1427 2 1.0553203642282655e+01 9.1659832401587291e+00 5.6734609571569088e+00 1 1 3
282 2 1.0464560562102896e+01 5.8615942773269794e+00 5.6419769310468020e+00 -4 0 0
533 2 7.2098104911297902e+00 3.5803387056407399e-01 9.6561512341771447e+00 -4 0 -1
1994 2 8.9487595891533345e-01 6.8495094439551441e+00 3.4948110073356866e+00 1 0 -2
299 2 -3.9146209092580566e+00 -6.8386524971767670e-01 1.6044890965005592e+01 -1 0 0
1852 1 -1.5814169736608061e+00 5.2148563528264757e-01 6.3724832558532736e+00 -1 1 1
1641 2 1.0741716827115788e+01 -2.2550487470845315e-01 1.2540397227720030e+01 0 0 1
616 1 5.6383811578714838e+00 6.6881566997238409e+00 5.8070998763222159e-01 -4 0 -1
1562 2 -2.0071732247073726e-01 1.3244497167409710e+00 1.7127578652587715e+01 1 0 1
1894 1 8.5380931032854619e+00 2.9443620934040116e+00 4.6539252566546416e+00 -1 1 2
1420 1 3.0947985192771643e-01 -1.3119083672287066e+00 2.3574207800313376e+00 0 1 1
1574 2 9.2676918268643078e+00 3.9374454434119039e+00 1.4792556236688274e+01 0 0 -1
1114 1 8.6364363269446738e+00 6.9229233041662805e+00 7.1312535779431050e+00 1 0 0
348 2 7.3653181030067092e+00 -1.9906759184556611e+00 1.0408122691979724e+01 -1 0 -2
821 2 5.0124904707843196e+00 -1.6390149564877055e-01 7.0397419905648153e+00 -3 0 1
1884 2 5.0956678626398393e+00 5.9080106863042872e+00 3.6698513839551121e+00 -1 1 1
1231 1 -3.5962655209245318e+00 -7.0241787903167285e-01 1.2209678525816253e+01 -1 1 -1
44 2 4.3992476019590230e+00 6.8753515003724477e+00 1.0890676638830799e+01 2 0 2
274 1 3.4254492390792564e+00 2.5652382088791361e+00 1.6517341342388072e+01 2 0 0
1555 1 -1.6389773275445298e+00 4.6648206284267530e+00 1.6363979157568707e+01 2 0 3
667 1 -1.2484688153978674e+00 -1.4805150514338958e+00 1.7089952420116692e+01 -3 0 -3
31 1 1.3923215566101776e-01 2.5300590627416888e+00 2.7681058552973488e+00 -3 0 -4
70 1 1.3248391333803047e+01 4.7819883587784515e+00 1.0562397659154350e+01 0 0 1
1996 1 -1.5713659005861937e+00 6.9426893250292725e+00 9.2596400507106118e+00 0 1 2
1031 2 3.5028650627012965e+00 9.0523235943602796e+00 1.8577124828162297e+01 0 0 -2
1892 2 7.5682093369540189e+00 -2.0393500265551392e+00 1.4134957152101228e+01 0 1 1
423 2 4.9987213591367388e+00 -7.5544941516806530e-01 1.2216153863445268e+01 1 0 3
128 2 -2.6597740037016839e+00 9.2385861738712372e+00 1.7827089524174308e+01 -3 0 -3
39 2 -3.3943039524330842e+00 3.7664799614401128e+00 1.0487455354266684e+01 -3 0 -4
1866 2 -8.8389872059342345e-02 -1.7860453786604900e+00 7.0200492927050631e+00 0 1 1
321 2 1.5041603484540149e+01 2.7161615941859472e+00 1.4530762126539789e+00 -6 0 -3
739 1 1.1190299321898806e+01 -2.0866383663731414e-01 5.8055378802355948e+00 1 0 2
1286 2 1.1532158282228625e+01 -1.5417423817747387e+00 1.4132322034398449e+01 -2 1 0
786 2 1.1413834370722874e+01 4.1321788039791949e+00 1.4066311063613966e+01 -3 0 -2
595 1 4.3067412818231849e+00 2.1136838698923066e+00 9.1581810004943538e+00 3 0 -2
214 1 5.9084274575567743e+00 7.4772017992002695e+00 1.6853375300623068e+01 -1 0 -5
929 2 5.0673963850669814e+00 4.6742032141892853e+00 1.0865447158208053e+01 0 0 0
9 2 1.3708900539353058e+01 6.3889909185213138e+00 6.8840645991570453e+00 0 0 0
268 1 1.0551337515642174e+01 6.0524842003352592e+00 9.1859350668402673e+00 5 0 0
829 1 3.8598971178393642e+00 -2.6638828501596619e+00 1.5285934169709386e-01 -4 0 2
123 2 -2.9496713771127028e+00 1.5128045284059457e+00 1.8029584038890086e+01 0 0 -1
1391 2 3.4262539654671573e+00 6.4670955878667442e+00 8.9946091043744794e+00 -1 1 1
1080 2 1.2536971391387835e+01 4.7784843302997988e+00 4.5828731638625664e-01 2 0 2
1094 2 7.1384037270694138e+00 -2.8043898517347654e+00 3.8129316834956045e-01 1 0 0
1977 2 9.5915976147652025e+00 9.3732415390584745e+00 9.5738412534678776e+00 1 1 2
900 2 5.8541064928140747e+00 4.3673657065650886e+00 1.7482897367606292e+01 -1 0 2
1854 2 1.5967792836737059e+01 8.9745894522522907e-01 5.5652741147022287e+00 -2 1 1
564 2 1.0760149657362650e+00 6.6676128600574209e+00 1.1631934741724523e+01 -3 0 0
1820 2 9.5730128912723500e-01 4.8316816992117859e+00 5.5656729898065551e+00 -1 1 0
1390 1 2.6340129274018893e+00 6.0869896611963199e+00 8.6013101355734420e+00 -1 1 1
1368 2 1.0675076503005446e+01 6.6916213937228530e+00 1.6758842863681874e+01 -2 1 0
491 2 5.7798189151655883e+00 -3.0114565983580031e+00 1.8939769467734063e+01 2 0 2
920 2 1.2341751742745892e+01 5.9700217055973805e+00 2.5073908516168877e+00 1 0 -1
43 1 4.7777651799797258e+00 6.2914623239704408e+00 1.0200259469410010e+01 2 0 2
904 1 5.3474054522746233e+00 2.5648717696509742e+00 1.4481970975408709e+01 -3 0 1
899 2 4.4385811205929455e+00 4.9984116081693220e+00 1.7645996192973076e+01 -1 0 2
990 2 -1.8055167248090007e+00 4.3641683916660545e+00 7.9640149143542676e+00 -1 0 1
597 2 5.1382244873584773e+00 1.7981779324379161e+00 8.8140414799799167e+00 3 0 -2
562 1 5.0979718293971210e-01 6.1502660977676662e+00 1.1017605602708255e+01 -3 0 0
116 2 1.4453144710173548e+01 4.3716846330395960e+00 3.1026995127342567e+00 -3 0 -3
388 1 8.9591077224956592e+00 9.2289775567113104e+00 3.7108450695911581e+00 -2 0 -1
1186 1 -1.5190461481466340e+00 -2.7286226807501963e+00 1.3280502234779318e+01 -1 1 0
935 2 7.7552214420106074e+00 9.2920094953339039e+00 1.1794972584809829e+00 -3 0 -1
1905 2 -5.1290689416826236e+00 9.5849831289177878e-01 1.5426974768999697e+01 0 1 1
1893 2 7.4535014367371444e+00 -9.0930253427262508e-01 1.5203415170305027e+01 0 1 1
1113 2 7.3744972571678709e+00 3.4884372497301541e+00 1.6116262097385853e+01 0 0 0
569 2 7.5831011844270160e+00 -5.9395509701459526e-01 2.9058586338693266e+00 1 0 2
1232 2 -2.9310156870377924e+00 -1.4137990517768144e+00 1.2215573620787392e+01 -1 1 -1
745 1 1.0508366753252663e+00 4.1994632531326515e+00 1.4898154753949196e+01 -1 0 2
1418 2 -7.0251840130872267e-01 8.3193560855219353e+00 1.7904969252226515e+01 1 1 -1
500 2 4.0041292161556861e+00 7.7251018413501278e+00 1.6399328459665110e+01 1 0 0
913 1 8.4306618609275503e+00 3.6551483543119323e-01 5.9177168097662793e+00 1 0 2
486 2 -1.9548569582579445e-01 -8.1101995714102948e-01 1.1457536163309179e+01 1 0 2
1660 1 2.6849550724713747e+00 7.9580472372682554e-01 1.1168709829815461e+01 0 0 0
499 1 3.1725409066986572e+00 7.6448339610562748e+00 1.5833316881199819e+01 1 0 1
547 1 1.2518888990765692e+01 9.5189711777902009e+00 1.0940785957322364e+01 -4 0 -4
519 2 -3.1010549217331129e+00 7.1191496407930721e+00 1.0179795554998774e+01 -4 0 -2
1392 2 2.0581253941006050e+00 6.8670297058745131e+00 8.3669615067411804e+00 -1 1 1
1446 2 2.8699039908428037e+00 -2.5520994485651807e+00 3.0945913155287004e+00 1 1 1
1492 1 -3.5223562800432617e-01 -5.8639846231375525e-02 1.2091462323230942e+01 1 1 2
1471 1 1.2560080392541298e+01 7.1864802008555237e+00 7.7182762945809529e+00 2 1 1
1409 2 -4.3534829777125790e+00 7.9918727669722198e+00 1.5574529679250114e+01 1 0 0
1891 1 7.9206063574678032e+00 -1.1540691360077138e+00 1.4359243386209581e+01 0 1 1
415 1 1.4323981673567918e+01 -5.8045030918200613e-01 9.5470389908049125e+00 -1 0 -2
536 2 -2.5869193747797103e-01 2.8772070182428262e+00 8.2102180605107407e+00 -3 0 2
481 1 -1.4605589266138628e+00 9.0207038791682415e-01 9.9180403183203918e+00 0 0 -1
1472 2 1.2054224046569400e+01 6.8572002626696804e+00 8.4489421473201585e+00 2 1 1
86 2 9.4620883191315013e+00 -1.3211246417583153e+00 9.7387819686061139e+00 2 0 -3
1397 2 -7.2189750344594650e-01 1.4855904729825280e+00 1.4941984069897611e+01 -1 1 -1
375 2 2.0994650443841243e+00 -1.5944857943106090e+00 5.4495837001696570e+00 1 0 2
1888 1 7.6687394475748905e+00 -2.2334227109442937e+00 6.6570110866085761e+00 -1 1 0
934 1 7.1535604480113655e+00 8.7732923066771349e+00 1.7591377784673023e+00 -3 0 -1
298 1 -4.0845620462920653e+00 -1.6447779829082942e+00 1.6360102234093006e+01 -1 0 0
1398 2 9.1351831621373147e-01 1.3749049216664835e+00 1.5175483291343369e+01 -1 1 -1
760 1 1.0355842381342914e+01 4.1617707081711570e+00 1.1099237121854120e+01 -3 0 3
1640 2 1.0728601366944986e+01 -2.5929636816844726e-01 1.0966540533530642e+01 0 0 1
346 1 7.7743045885268867e+00 -1.4763104253844697e+00 9.6752326499543972e+00 -1 0 -2
822 2 6.4542141626887268e+00 4.9042713002405680e-01 6.8616610732452203e+00 -3 0 1
1925 2 1.0883304606320733e+01 5.1076229610346413e-01 1.5072614086767507e+01 -2 1 1
537 2 -2.7877465312830507e-01 1.4393073234027964e+00 8.9434125557472441e+00 -3 0 2
1643 2 6.2333944052656660e+00 9.0420118433340768e-01 1.1729130644495489e+01 -1 0 0
794 2 1.4554808964882117e+01 -6.5964247915923657e-01 3.1309250619438052e+00 -2 0 0
237 2 1.2454965884680918e+01 -6.9068112041302898e-01 5.9221401401533635e-01 -3 0 2
872 2 6.9692667473537204e+00 8.8165812802137946e+00 1.3803199245416019e+01 -1 0 -1
87 2 1.0903089097338015e+01 -9.6482292195524977e-01 9.1330713105729178e+00 2 0 -3
1493 2 1.0485188967725117e+01 3.5390035853119377e+00 7.3061897973554712e+00 2 0 3
1096 1 4.5564828874603629e+00 5.4847775580112668e+00 1.4327098165944596e+01 3 0 -1
216 2 5.6089423981981366e+00 8.0616346946984745e+00 1.7603418781448358e+01 -1 0 -5
741 2 1.0339108497822595e+01 2.4935977090719730e-01 5.8942994283536043e+00 1 0 2
373 1 1.6283686153306847e+00 -2.1202599456808615e+00 6.1176527770368612e+00 1 0 2
1561 1 -5.2635594220997284e-02 8.6463841478365033e-01 1.8021879249179680e+01 1 0 1
55 1 2.6583778073133204e+00 3.6226280515287970e+00 2.3511771745618399e+00 -3 0 4
485 2 5.2229360872065023e-01 2.8745905300124530e-01 1.2187986582791780e+01 1 0 2
683 2 -4.9947484612536597e+00 6.0981024376545321e+00 1.4512198813188297e+01 3 0 0
1909 1 9.3109071738826650e+00 6.2168925148629981e+00 1.8768154799309698e+00 0 1 1
952 1 1.4565713771679436e+01 1.8458081262058235e+00 4.5846721157014549e+00 -2 0 0
1736 2 3.1848271099314074e-01 -4.1145136308225938e-01 3.8072056633160236e+00 -2 1 1
1200 2 6.6916758981696347e+00 8.6076412027769909e+00 6.2026123710602405e+00 -1 1 1
1630 1 2.6315800583436624e+00 2.0176629037226110e+00 7.2903862684418996e+00 0 0 2
985 1 1.3156169596048035e+00 7.6884257880815454e+00 3.7733550524210524e+00 1 0 -2
1458 2 1.3794725740827465e+01 4.1762674745638879e+00 7.2155777183154193e+00 0 1 0
988 1 -8.3611986521726878e-01 4.4047707232691433e+00 7.9732000766895839e+00 -1 0 1
117 2 1.4324402412032102e+01 5.2319614573661362e+00 4.4823845931552269e+00 -3 0 -3
177 2 6.9742911544460222e+00 1.8149079320957142e+00 2.9823524626191511e-01 -4 0 2
1832 2 2.5909830221521988e+00 1.7102740142754138e+00 4.2664775070140433e+00 0 0 1
1066 1 9.4185669496509945e+00 8.7160462409156612e+00 1.4096116340208875e+01 -1 0 1
2016 2 1.3690556774413025e+00 -8.0047584689213913e-01 1.5260343908678895e+01 0 1 0
176 2 7.9526729547004162e+00 2.5862596995597107e+00 1.2366280816036748e+00 -4 0 2
903 2 9.0987714056427151e+00 6.8634658453038675e+00 1.1856674882602847e+00 0 0 1
830 2 3.9182383401291987e+00 -1.6490432661740451e+00 2.4621849620171743e-01 -4 0 2
999 2 1.0443882280224251e+01 3.6403216026504479e+00 2.7713668204430055e+00 0 0 5
727 1 1.6150500067108371e+01 8.6763880600605212e+00 1.8862052072796248e-01 1 0 2
1575 2 9.3816867795708561e+00 4.9614162410036542e+00 1.5903084232483671e+01 0 0 -1
374 2 1.8547994248392818e+00 -3.0225550957252105e+00 5.9607436575579991e+00 1 0 2
1470 2 9.2938995038681576e+00 -1.1073601338163188e+00 2.3933607907515615e+00 0 1 1
731 2 1.4676113675404675e+01 -1.6226456770262081e+00 5.0819519732286658e+00 0 0 0
320 2 1.5064719713993679e+01 2.3166962293791151e+00 2.9399372949883507e+00 -6 0 -3
986 2 2.5301499628061443e+00 5.0651556755187137e+00 7.1971431859955342e+00 1 0 1
1547 2 7.8666165693382348e+00 7.5170287637492255e+00 8.7077741517957570e+00 -1 0 0
398 2 1.0774754535977801e+01 -2.3348155638624339e+00 1.7070074758955144e+01 3 0 0
181 1 -2.6219989276134092e-01 5.6249299654000993e+00 2.6290326802748756e+00 -1 0 0
1632 2 1.6966756403237278e+00 1.8567577989861812e+00 7.6780654207474095e+00 0 0 2
420 2 6.0913956468051351e+00 1.0556512268252272e-01 1.6671419667928738e+01 -3 0 1
563 2 1.1545228264815903e+00 5.8772946299072721e+00 1.0307157337536191e+01 -3 0 0
1285 1 1.0721190116575858e+01 -9.1175544637033434e-01 1.4377925273869733e+01 -2 1 0
1976 2 1.0246410236015512e+01 8.8488384313961035e+00 8.1381369540014035e+00 1 1 2
494 2 2.4156101880495946e+00 5.0567055371033458e+00 1.6508495450988544e+01 -2 0 -1
919 1 1.1764548154360172e+01 6.5935785483598064e+00 2.8947086640258175e+00 1 0 -1
882 2 -3.5809163140273270e-01 4.7041753588028365e+00 1.7502518490397875e+01 -2 0 2
518 2 -3.3431477965995984e+00 7.5175556432814599e+00 1.1771945089788145e+01 -4 0 -3
194 2 1.1760286455200873e+01 3.2339501435491247e-02 7.4587736807658054e+00 -2 0 -2
1513 1 -4.4883688723768316e+00 8.2781828323607307e+00 1.7213520274303672e+01 0 0 2
1914 2 4.6173089175592148e+00 2.3866298817861962e+00 1.5098559305148665e+01 -3 0 1
1898 2 -2.1326558309728272e-01 4.6657014958004890e+00 1.1896753212919901e+01 1 1 2
440 2 1.0458655740217516e+01 2.5130589512462764e+00 8.8773852362744810e-01 -5 0 -2
1543 1 2.8840372715109073e+00 9.2856776590456196e+00 1.9193866072355812e+00 -1 0 0
998 2 9.5358988300178318e+00 4.4526015942873780e+00 1.9038846163710952e+00 0 0 5
682 1 1.2735645506131643e+01 5.1256105417236473e+00 1.4724831812816614e+01 2 0 0
193 1 1.1980863695604160e+01 2.3206290107853844e-01 8.4120770161347558e+00 -2 0 -2
876 2 1.0915228078417996e+01 4.9312938657759506e+00 1.8143243123412617e+01 -3 0 1
1469 2 9.0599779709549697e+00 2.8110905632913852e-02 1.2430844708669906e+00 0 1 1
622 1 4.5439559539006122e+00 9.2781022715392236e+00 8.6094747777090976e+00 0 0 0
693 2 5.4239960127596136e+00 3.4766380715302736e+00 5.0045465342872948e+00 -1 0 3
1665 2 -1.9015941178533819e+00 7.6017577575834805e-01 1.3175134499038863e+01 0 1 -1
1456 1 1.4082415736970370e+01 3.2479143019068921e+00 7.4221410796465914e+00 0 1 0
112 1 2.9151036040104876e+00 -1.8547385350326266e+00 1.0058885410640480e+01 -2 0 -1
784 1 1.0728551683643015e+01 3.5781687209404724e+00 1.3783049711937551e+01 -3 0 -2
590 2 7.6137625864162715e+00 4.0915469757564544e+00 1.0388193931114404e+01 -4 0 0
1958 2 -1.5270468388929510e+00 7.7558478536796400e+00 5.6873091364973822e+00 1 1 1
1098 2 4.0280641074495147e+00 4.6832910068782647e+00 1.4365990999862024e+01 3 0 -1
1029 2 8.2191701593067421e+00 6.5318131283882206e+00 1.2171334134307974e+01 0 0 -1
493 1 2.7425586482126789e+00 5.2488441009212927e+00 1.7383067417014441e+01 -2 0 -1
1917 2 -4.7473859052946432e+00 -2.2642032195756050e+00 1.4810509335189687e+01 0 1 0
921 2 1.0910612453368353e+01 6.3638601105636603e+00 2.5913565736169502e+00 1 0 -1
195 2 1.2950095670166618e+01 8.9232143042790923e-02 8.6417458264063090e+00 -2 0 -2
617 2 6.1268336107975720e+00 5.9793509775672629e+00 8.5356045839619019e-02 -4 0 -1
417 2 1.4537230546107134e+01 -1.4057836854159589e+00 9.0739936746767569e+00 -1 0 -3
1556 2 -2.0357409053003082e+00 3.9239751742136537e+00 1.6825308291904349e+01 2 0 3
1032 2 1.1322804876171357e+01 9.3586247921729857e+00 3.8749238352545673e-01 0 0 -1
400 1 -4.3952245614788215e+00 7.6865217923189295e+00 1.4590682700424210e+01 1 0 0
941 2 1.1316570355693440e+01 -2.5806507630956794e+00 3.1807796563863149e+00 0 0 2
1611 2 8.8683286322510995e+00 8.1352780244513188e+00 1.6409440370891534e+01 1 0 1
422 2 4.1144557977296881e+00 -1.6479680231410017e+00 1.3248807174863170e+01 1 0 3
484 1 1.0398557366024150e+01 3.9525544578725356e+00 6.4416715990320004e+00 2 0 3
1436 2 1.2988228372931507e-01 9.5070892748492142e-01 6.4946186174762055e-02 0 1 2
183 2 1.6854793311315330e+01 6.1408594503286977e+00 2.5621592033882847e+00 -2 0 0
218 2 1.3902052221221343e+01 1.2319977102193373e+00 5.4536603063071641e-02 0 0 0
1926 2 1.1042310406799288e+01 2.1183284968033451e+00 1.4947915204574384e+01 -2 1 1
568 1 6.8702975510893438e+00 -8.4648808869099446e-01 3.5608978045474866e+00 1 0 2
549 2 1.3129862386953647e+01 8.7692496825129034e+00 1.0876658792674061e+01 -4 0 -4
38 2 -3.1149720912486147e+00 3.1355078366891247e+00 9.1498413280709610e+00 -3 0 -4
421 1 4.4500580821041265e+00 -1.5321491650309838e+00 1.2317537534656044e+01 1 0 3
1067 2 8.9730112459505236e+00 8.1276620406641964e+00 1.4691859834012565e+01 -1 0 1
227 2 2.3481049112166996e-01 7.7285763302820651e+00 7.0703615816410403e+00 2 0 1
1680 2 -3.0022223419171010e+00 7.5517486138070389e+00 1.3763096781006075e+01 0 0 0
239 2 1.8953823346508969e+00 -1.0267142767759081e+00 1.8621732731827215e+01 0 0 -1
416 2 -2.8039857390779210e+00 -1.2378012359080426e-02 9.6039930997298999e+00 0 0 -3
1931 2 9.7892026380170205e-01 9.5790266705738212e+00 4.0185983547455963e+00 0 1 0
802 1 1.6875563858734841e+00 7.7394632815355351e+00 1.2979589222252251e+01 -1 0 -2
1088 2 7.5578388065640913e+00 5.4767139481768687e+00 1.4599902360588983e+01 0 0 -1
1361 2 3.4673297472456408e+00 -3.3726133595276186e-01 4.3113600211850143e+00 -1 1 1
402 2 1.2944404892747688e+01 8.3330885662715648e+00 1.4160189034024576e+01 0 0 0
179 2 1.1086138569954965e+01 9.3649538203105251e+00 1.3918795165860807e+01 -5 0 -1
905 2 5.5795111598768923e+00 1.7781245798986829e+00 1.3908370310186225e+01 -3 0 1
676 1 1.0454970315410696e+01 1.7976032541873384e+00 1.8195964823034164e+01 -3 0 0
928 1 4.8484355057279878e+00 3.8554815580273916e+00 1.1318269020662633e+01 0 0 0
743 2 1.1469426545341324e+01 3.2554080607969453e+00 9.5633210450205546e+00 0 0 2
1476 2 4.1522357059887733e+00 4.5514975623766585e-01 1.2316161167464728e+00 -1 1 0
1664 2 -2.8422209103281171e+00 7.0138347271923518e-01 1.4528481773112398e+01 0 1 -1
1514 2 -5.4661513885695188e+00 8.4043791061544191e+00 1.7296104559077200e+01 0 0 2
1735 1 5.3030254730324433e-01 4.0055818869242721e-01 4.3810658738963708e+00 -2 1 1
603 2 2.6617102458567583e+00 1.1442158773374107e+00 1.3357417998472906e+01 -1 0 -2
796 1 1.6251187848457338e-01 -1.9653024331562867e+00 1.0285633361987921e+01 -2 0 1
632 2 -3.0389482856432259e-01 6.8855199903341013e+00 1.5476483703622868e+01 -2 0 -1
439 1 1.0812908311987920e+01 2.2803395132721258e+00 5.8298034526842362e-03 -5 0 -2
1323 2 -5.0403156035384971e+00 -1.9842082624279873e+00 1.7794427464470925e+01 -1 1 0
744 2 1.1616520952514204e+01 1.9108348638314165e+00 8.8426029745605117e+00 0 0 2
1477 1 1.2446414022267398e+01 2.2028114835994659e+00 1.2257116504061223e+01 -1 1 0
121 1 -3.1278482601743987e+00 2.2461221458186955e+00 1.7373976509439515e+01 0 0 -1
8 2 1.5072929219474656e+01 6.2310653578515574e+00 6.3504855888979517e+00 0 0 0
1915 1 1.2848009388661062e+01 -2.3205685322914222e+00 1.3857115640991008e+01 -1 1 0
490 1 1.1588330013702272e+01 -2.7031364492019501e+00 3.0547612432726950e-01 2 0 3
1226 2 -1.8604722082040253e+00 9.1996395153047921e+00 1.2738096945170472e+01 0 0 -1
535 1 4.0156553163715358e-02 1.9068974636113962e+00 8.1235797001576078e+00 -3 0 2
1321 1 -5.8191843456101395e+00 -2.2125986216575821e+00 1.8410918180852153e+01 0 1 0
602 2 3.0489904167190502e+00 5.4463513396457541e-01 1.4824523119897886e+01 -1 0 -3
623 2 4.4692888724158379e+00 9.1121621521558662e+00 9.5546786403903354e+00 0 0 0
691 1 6.0569132026261894e+00 2.9282266117401603e+00 5.5105588737372617e+00 -1 0 3
1027 1 8.8329771114902833e+00 6.9779945833838610e+00 1.1494607432095204e+01 0 0 -1
785 2 1.1231004255429749e+01 2.9640517692303687e+00 1.3124384833065211e+01 -3 0 -2
815 2 3.5666794728910514e+00 8.5582807287183176e+00 1.1882426444638254e+01 4 0 1
1831 1 3.4514168490287620e+00 1.5527803986054121e+00 4.6098381160688096e+00 0 0 1
104 2 -2.9132400191772936e+00 3.0608535638429846e+00 1.4023077018386873e+01 1 1 -2
279 2 1.2331033605270514e+01 4.0737498946701916e+00 4.0300368271010001e+00 -4 0 -2
797 2 -3.5119824530221777e-01 -1.7960344338820071e+00 9.4401280691222738e+00 -2 0 1
1468 1 9.0263096411899895e+00 -1.5558776827572096e-01 2.2513292973486418e+00 0 1 1
517 1 1.4144237229502032e+01 7.2842843356041236e+00 1.0889512582960906e+01 -5 0 -2
1366 1 1.0821216918219557e+01 5.6950727806193768e+00 1.6765967924371765e+01 -2 1 0
601 1 2.3534730011691130e+00 6.6063240112947996e-01 1.4132054455871746e+01 -1 0 -2
182 2 -8.1705485328682492e-02 5.1671415973682038e+00 1.7769869793928015e+00 -1 0 0
1548 2 7.3420892065183931e+00 8.7806793367248748e+00 9.5559298218462114e+00 -1 0 0
1943 2 3.7352934666160253e+00 -3.0750917435602649e+00 1.6364158915762630e+01 -1 1 1
1396 1 9.5997796072389896e-02 1.8139446395852277e+00 1.5515585606797487e+01 -1 1 -1
526 1 8.7917660708495866e+00 1.4363247854089991e+00 1.3141096734572329e+01 -2 0 1
1079 2 1.3470448136546413e+01 5.7367156662582008e+00 1.0769547514089023e+01 0 1 1
300 2 -3.1747983578300740e+00 -1.9738729038680534e+00 1.6616778033987110e+01 -1 0 0
881 2 2.0730406492767450e-01 3.8479863797299707e+00 1.8605816375600103e+01 -2 0 2
1097 2 4.1702065908548933e+00 6.2589265640624472e+00 1.4807968090653137e+01 3 0 -1
175 1 7.0876168142026055e+00 2.5863662388023911e+00 8.6791135659616681e-01 -4 0 2
228 2 1.2198070795976772e+00 8.8863514323406747e+00 7.7735890413141391e+00 2 0 1
647 2 7.2872599560990494e+00 2.7282346300348301e+00 1.2794234613113971e+01 -4 0 0
1188 2 -7.8193194045035908e-01 -2.1791855531577045e+00 1.3590287895769618e+01 -1 1 0
1475 2 2.7273428157950605e+00 3.0516901936335250e-01 5.5548747452961111e-01 -1 1 0
1132 1 1.5451516396244578e+01 7.2085576184115308e+00 2.5266584760785236e+00 1 0 1
648 2 7.0830284913684372e+00 4.2349041216694889e+00 1.3023022515170645e+01 -4 0 0
1028 2 8.2272399153726461e+00 7.0983571359182633e+00 1.0720956742428228e+01 0 0 -1
1624 1 6.6196240370577737e+00 5.1945630075281883e+00 7.6106723446753470e+00 0 0 0
1883 2 5.3223472442539972e+00 7.4575856729665073e+00 3.6027390284202929e+00 -1 1 1
1112 2 6.0119171228869090e+00 2.5910354364370347e+00 1.6159478305074629e+01 0 0 0
1550 2 -2.2555578815633979e+00 5.8761998493170839e+00 1.7435265135100590e+01 1 0 0
803 2 1.2110448378734038e+00 7.3510259732470065e+00 1.3776855708126183e+01 -1 0 -2
1322 2 -5.9283116515993601e+00 -1.4755791105370231e+00 1.8974041204199402e+01 0 1 0
804 2 2.5987284274220306e+00 7.4880777209392573e+00 1.3107186732604372e+01 -1 0 -2
1362 2 4.3853583977987167e+00 -1.6362121201741768e+00 4.7259882198750720e+00 -1 1 0
761 2 1.0043732118128203e+01 4.2362148395940151e+00 1.2032539973955604e+01 -3 0 3
1986 2 5.1910250011166266e+00 8.0668783090181684e+00 7.5728394352814412e+00 -1 1 1
1910 2 8.7769155950271980e+00 6.3146389973644261e+00 2.7072224168816033e+00 0 1 1
226 1 1.1457130245478897e+00 7.9824700075008703e+00 7.4726170634265783e+00 2 0 1
740 2 1.1615065611866566e+01 2.1909758012787073e-01 5.0725245202870113e+00 1 0 2
720 2 4.3727438922959285e+00 -1.1493666133101259e+00 1.6000700213592218e+01 -1 0 -3
875 2 1.0804621990305687e+01 3.5597055048542030e+00 1.8767189532754912e+01 -3 0 1
1417 1 -7.3933244356824801e-02 7.8290653812953632e+00 1.7321871014925726e+01 1 1 -1
1134 2 1.5391312883218875e+01 8.0079134291308414e+00 3.1670825498884283e+00 1 0 1
655 1 -1.9896096839644462e+00 1.0323394520102109e+00 1.4096738459438738e+01 0 0 -1
235 1 1.2589266094594290e+01 2.3210541744946411e-01 7.6741834254035379e-01 -4 0 2
888 2 -1.4421916660390097e+00 8.7938250957436885e+00 9.3853536365608257e+00 -2 0 1
1479 2 1.1971915971139307e+01 1.4395540173964578e+00 1.1865035307105522e+01 -1 1 0
441 2 1.1221297473222739e+01 1.3867407721023417e+00 1.7435038914521669e-01 -5 0 -1
742 1 1.1095065260032278e+01 2.7379984196065665e+00 8.8164750105613674e+00 0 0 2
33 2 1.0593204837746573e-01 1.8447360706168627e+00 3.4744717099128026e+00 -3 0 -4
1942 1 4.1924929826185231e+00 -2.9133812660228471e+00 1.5477411098129979e+01 -1 1 1
1133 2 1.4801973129266251e+01 6.5435265189692569e+00 2.7742112476071101e+00 1 0 1
1559 2 1.2972216483003125e+00 8.1435400443119086e+00 1.8429654671027627e+01 -1 0 -1
1807 1 5.1143636039351037e+00 1.3824862711098040e+00 2.3129666291174535e+00 -1 1 1
105 2 -2.3992369632645318e+00 4.1651853219963817e+00 1.3157004373799928e+01 1 1 -2
1995 2 2.4824739762002568e+00 3.5730278442199985e+00 6.6825099829331007e+00 1 1 1
528 2 8.8007545242444642e+00 5.3792650193966862e-01 1.3550575927794734e+01 -2 0 0
1939 1 3.1496448330213687e+00 8.2886233252871300e+00 5.5907105076542019e+00 3 1 2
793 1 1.3963121153753331e+01 -6.1629719429361174e-01 3.9060696984932743e+00 -2 0 0
71 2 1.2341017582495546e+01 3.5518651291557326e+00 1.3146951148731423e+00 2 0 2
1093 1 8.2655062444108029e-01 -2.2981020529894143e+00 1.8702348552801176e+01 1 0 -1
1897 1 -9.7449581973015409e-01 4.0551310106147014e+00 1.2028980359835604e+01 1 1 2
1457 2 1.3311361093039284e+01 2.8593493915870605e+00 7.8607987832676569e+00 0 1 0
987 2 1.9484873898521622e+00 7.5648538641078691e+00 4.4918089717515874e+00 1 0 -2
1972 1 6.4635715078132323e+00 -3.0027295737208681e+00 1.1377099610876993e+01 -1 1 0
276 2 3.6146890120252433e+00 2.6690674361918392e+00 1.7509452859142282e+01 2 0 0
1233 2 -3.9078397268179823e+00 -8.3149065265185795e-01 1.1311054015168665e+01 -1 1 -1
258 2 1.1610764042753113e+01 -2.7216364747127257e+00 1.0677899548350222e+01 1 0 1
1360 1 3.5440584283575416e+00 -1.3302340242174224e+00 4.2452570288378677e+00 -1 1 0
1435 1 8.6354560126809954e-01 6.1711748347493911e-01 6.4973316145412430e-01 0 1 2
719 2 3.6577650709787903e+00 -4.4967510036463310e-01 1.7223828246254119e+01 -1 0 -3
281 2 1.1406900047304877e+01 6.6280517420275302e+00 4.6059690314583319e+00 -4 0 0
631 1 -1.1098450460940246e-01 6.5778708664199375e+00 1.4606587407384803e+01 -2 0 -1
1846 1 5.5278175666917777e+00 -2.9567583445124255e+00 5.3467359526066600e+00 -1 1 1
114 2 1.9225225684245513e+00 -1.9832660323566009e+00 1.0092009850991857e+01 -2 0 -1
1661 2 3.1570666001807202e+00 1.2031701863872080e+00 1.0412895862390513e+01 0 0 0
1515 2 -4.2129412683340721e+00 7.5701060316998028e+00 1.7789843531049438e+01 0 0 2
1975 1 1.0368400075710916e+01 8.9140718968162442e+00 9.1081682886331414e+00 1 1 2
717 2 1.1670112208031984e+01 8.4012215648023520e+00 2.6598460445380483e+00 0 0 1
747 2 5.6018724053087077e-01 3.4148612269230112e+00 1.5223318593911634e+01 -1 0 2
733 1 1.1572540347137378e+01 -2.8668340107644315e+00 6.8478126055411845e+00 -5 0 0
678 2 1.0576245695561420e+01 1.8154429367903990e+00 1.7225694384736641e+01 -3 0 0
1631 2 3.2746344873743460e+00 2.1381638085261585e+00 7.9857152754843215e+00 0 0 2
1833 2 3.2652436748729725e+00 1.5274961047031379e+00 5.5838171595027255e+00 0 0 1
820 1 5.5013207402478344e+00 6.3084050806067626e-01 6.7204923089327293e+00 -3 0 1
1078 1 1.2586651354749144e+01 4.4556213973487102e+00 1.4369657912831701e+00 2 0 2
730 1 1.5265216033391205e+01 -2.3450915752305601e+00 5.4923131126131386e+00 0 0 0
1087 1 7.1027088367068991e+00 5.9077890911490343e+00 1.3813853251264916e+01 0 0 0
1916 2 -4.5238334668985880e+00 -1.6186539026658213e+00 1.3331616872807228e+01 1 1 0
269 2 9.9817334631855168e+00 5.9470625557928081e+00 8.3833438980328143e+00 5 0 1
981 2 8.5957764985202800e+00 5.3784740057514213e+00 4.3500322096061570e+00 -1 0 1