LAMMPS data file via write_data, version 3 Mar 2020, timestep = 1000000

1008 atoms
2 atom types

2.3841258455948378e-01 1.8161142415435023e+01 xlo xhi
7.0607046564406417e-02 2.2499781953434496e+01 ylo yhi
2.3429832980374421e-01 1.9271417670191941e+01 zlo zhi
7.2171975733733407e-02 -6.7238100132375775e+00 3.3214449511905435e-02 xy xz yz

Masses

1 16
2 2

Atoms # atomic

1 1 6.7840369314273650e+00 1.1148853473696947e+00 4.7715948494327627e+00 0 0 0
108 2 8.5445045863967763e+00 3.1706895859685171e+00 9.6121894958086749e+00 0 0 0
3 2 6.5961867589802168e+00 1.5764852281672375e+00 3.9041237144030290e+00 0 0 0
4 1 3.8180645627233734e+00 1.4019437852361702e+00 5.1909389344295738e+00 0 0 0
5 2 4.7117186752128752e+00 9.5284152838456837e-01 5.0884841760189650e+00 0 0 0
6 2 3.7407279282272685e+00 1.7440011458542561e+00 6.1239560463108598e+00 0 0 0
7 1 -4.9817381148948270e-01 6.5026223540618506e+00 5.2485591578895727e+00 0 0 0
8 2 -5.4368650470844537e-01 6.1763525341151837e+00 6.1479450439859518e+00 0 0 0
9 2 -1.0795844706088060e+00 7.2509715750723105e+00 5.0885163166376390e+00 0 0 0
10 1 2.3184658861697809e+00 6.2011401874532890e+00 5.2299599118062581e+00 0 0 0
11 2 1.3928864164556676e+00 6.5079628698789662e+00 5.3656768222780844e+00 0 0 0
12 2 2.8869846886930324e+00 7.0285359026350189e+00 5.3926583515631359e+00 0 0 0
290 2 1.5910238848410366e+01 1.0879704362870639e+01 3.1580867319828152e+00 0 0 0
14 2 5.1672452832653502e+00 5.0643813851099413e+00 9.1900855415447520e+00 0 0 0
672 2 9.0222077154882996e+00 6.9010068671016356e+00 9.6922691822073954e+00 0 0 0
240 2 4.0925343732809765e+00 8.9666465792364622e+00 1.2043255841544660e+00 0 0 0
18 2 5.4149001449642444e+00 5.3934044139070627e+00 1.4013473614467296e+00 0 0 0
152 2 7.5964616857946989e+00 7.8301652029743374e-01 7.9914374316536225e+00 0 0 0
82 1 2.3661149698380846e+00 6.1819040478200984e+00 4.3489897338338390e-01 0 0 1
21 2 8.5231891777389068e-01 2.3834254686447589e+00 8.5309769407636116e-01 0 0 0
273 2 1.1135901235104981e+01 1.0665323589047027e+01 4.1052341736610309e-01 0 0 1
587 2 -1.5345802026084872e+00 6.9740518149438095e+00 9.3771388190103462e+00 0 0 0
106 1 9.4646356912062082e+00 2.8151175860512256e+00 9.5246772539128148e+00 0 0 0
25 1 4.9569761645784487e+00 6.0111670994817938e+00 7.6136944255242591e+00 0 0 0
26 2 5.3355947394422243e+00 6.9420477976805914e+00 7.7841124682652048e+00 0 0 0
27 2 4.0299037296851914e+00 6.1967797408395473e+00 7.7918526169935731e+00 0 0 0
28 1 5.7398482487506062e+00 6.4006269433445446e+00 2.9482981793323297e+00 0 0 0
29 2 5.4342870999947062e+00 5.9646542667096991e+00 3.7965201565421278e+00 0 0 0
30 2 5.1541368199058937e+00 7.0339597362776498e+00 2.5507343526437598e+00 0 0 0
31 1 1.1278321477622044e+00 1.4137633539155610e+00 2.4394525433469392e+00 0 0 0
32 2 1.9927435500980284e+00 1.2535411019294127e+00 2.0481039803523124e+00 0 0 0
33 2 1.1998889036091140e+00 1.7273495911240251e+00 3.3356907749837923e+00 0 0 0
34 1 2.2880403821640227e-01 1.2440040140312361e+00 7.4318958578469934e+00 0 0 0
304 1 1.2614263841188064e+01 1.0853881706878211e+01 3.5161838280744391e+00 0 0 0
36 2 3.6720326825637928e-01 1.8534494937327486e+00 8.0959548131976877e+00 0 0 0
37 1 6.2368449331867248e+00 2.5812896368666247e+00 2.5732980935948571e+00 0 0 0
38 2 5.4124703926659965e+00 3.0307272282141420e+00 2.9064546393477748e+00 0 0 0
39 2 6.9523212291919299e+00 3.2984480216681997e+00 2.6140480324155360e+00 0 0 0
40 1 4.2460051942262123e+00 2.4436130010499242e+00 7.7538272535807335e+00 0 0 0
41 2 5.1042680602366302e+00 2.8273497241892858e+00 7.5263720336360658e+00 0 0 0
42 2 3.6339339510708162e+00 3.2351651264825101e+00 7.5718804792587697e+00 0 0 0
43 1 -9.8039369672018317e-02 5.0801698350239892e+00 7.4951220953158080e+00 0 0 0
44 2 -4.5698314911225335e-01 4.2638743779916881e+00 7.1445478326089162e+00 0 0 0
45 2 -5.6491344067457083e-01 5.3811086883829082e+00 8.3568929201193978e+00 0 0 0
46 1 1.7201379997010076e+00 5.2926172631257220e+00 2.7629382937283937e+00 0 0 0
47 2 7.7436931260207909e-01 5.0982753990327403e+00 2.9062638039581876e+00 0 0 0
48 2 2.0205654239277289e+00 5.7713220810226682e+00 3.5900802224903385e+00 0 0 0
49 1 6.4717821000726055e+00 3.2265177052477920e+00 6.5186615589372314e+00 0 0 0
50 2 6.0768278394706350e+00 4.0136354973259518e+00 6.0011182790754303e+00 0 0 0
51 2 6.4312912888347018e+00 2.4855479046781657e+00 5.8793895261212672e+00 0 0 0
52 1 3.7837916060330210e+00 3.3281749340704874e+00 3.2609861137182343e+00 0 0 0
53 2 2.9630759990127142e+00 3.8130577420080951e+00 2.9456717538942376e+00 0 0 0
54 2 3.5344257018892433e+00 2.5546858695552759e+00 3.7355549498160321e+00 0 0 0
55 1 -6.9119532678165174e-01 4.2992067023473108e+00 3.5318198799730891e+00 0 0 0
56 2 -8.0000528852238872e-01 5.0002643986859336e+00 4.1987257496371484e+00 0 0 0
57 2 -3.9530350784222068e-01 3.5627905387715142e+00 4.1203255804421488e+00 0 0 0
58 1 2.3760928185755699e+00 3.9156361444451573e+00 6.8595030789989115e+00 0 0 0
59 2 2.3740129919941144e+00 4.8253064899103117e+00 6.4391191054720833e+00 0 0 0
60 2 1.6275406435303874e+00 4.0902324408980775e+00 7.4859618614715426e+00 0 0 0
61 1 8.1719062134870555e+00 7.0163331985607549e+00 1.8127431388095006e+00 0 0 0
62 2 7.3584088578023632e+00 6.6620250600220121e+00 2.2446309183482565e+00 0 0 0
63 2 8.6892920157906559e+00 6.3633408953235486e+00 1.3637268795265312e+00 0 0 0
64 1 2.2195534800170109e+00 6.9377379554527510e+00 8.4165262485028283e+00 0 0 0
65 2 1.3703168422155585e+00 7.3241467053025540e+00 8.0627686687947868e+00 0 0 0
66 2 2.6084263528808922e+00 7.6855361188410205e+00 8.9149759473891610e+00 0 0 0
220 1 3.7960400679015827e+00 1.0504156687859902e+01 3.7859124245038629e+00 0 0 0
68 2 -2.7166373292008115e+00 1.2294668572734371e+00 8.8369993423402668e+00 0 0 0
219 2 6.2324679336964843e+00 1.0657197856285002e+01 7.0974530445835669e+00 0 0 0
72 2 3.7929130337528343e+00 1.3862455312644073e+00 1.2867892158836138e+00 0 0 0
73 1 5.0061671050382275e+00 5.2404633308218518e+00 5.1863866949770996e+00 0 0 0
74 2 4.7796870866102221e+00 5.5102937859248371e+00 6.0501302866722018e+00 0 0 0
75 2 4.2553008409611888e+00 4.7036400152791220e+00 4.8859765577163534e+00 0 0 0
76 1 8.2737414615697924e-01 2.4849495090524898e+00 5.0028591612835935e+00 0 0 0
77 2 3.8801502110309594e-01 1.8664834701304287e+00 5.5807204559462651e+00 0 0 0
78 2 1.5115430666521332e+00 2.9406636633260459e+00 5.4874476686532505e+00 0 0 0
80 2 6.5358933056281225e+00 2.1450658207299935e+00 1.0167953125176745e+00 0 0 0
331 1 1.5799805365550336e+01 9.2133354792006283e+00 4.2005450034787462e-01 0 0 0
836 2 1.2979369126327242e+01 9.5511602264829651e+00 8.9679872155827578e+00 0 0 0
85 1 1.5876081793056875e+01 1.2700406232914518e+00 4.7946003565277788e+00 0 0 0
87 2 1.5798609550097703e+01 1.6371434855152207e+00 3.9036591423657598e+00 0 0 0
88 1 1.3036538204336654e+01 1.0354221843787963e+00 5.4177661816666767e+00 0 0 0
89 2 1.2839761964061454e+01 1.7996454049905459e+00 4.8096238785892647e+00 0 0 0
90 2 1.4012656841120775e+01 8.9966839976685031e-01 5.3144393290814520e+00 0 0 0
91 1 8.1276388461740456e+00 6.3314188434205869e+00 5.0382729459210589e+00 0 0 0
92 2 8.1490653462297225e+00 5.6104097307768077e+00 4.3467178741809711e+00 0 0 0
93 2 9.0514646488745640e+00 6.6374302669604059e+00 4.9666881598284256e+00 0 0 0
94 1 1.0776485663970899e+01 6.3601639328424593e+00 4.6930169170041935e+00 0 0 0
95 2 1.1331842287360207e+01 7.1520473458603222e+00 4.9045715238019225e+00 0 0 0
96 2 1.0971428298641344e+01 5.5868053873664500e+00 5.2689937905260100e+00 0 0 0
117 2 9.3558706505266969e+00 5.3992041810295555e-01 2.3723707310070106e+00 0 0 0
133 1 1.5981084868111200e+01 3.3815632969609144e+00 6.2999124048829858e+00 0 0 0
17 2 4.8727942202631818e+00 4.1846211465175740e+00 4.1661125672833077e-01 0 0 0
101 2 1.4585504861969309e+01 5.3352256274865315e+00 1.2800064988777111e+00 0 0 0
302 2 1.4753975789128720e+01 1.0736263604784931e+01 6.5598788415502245e+00 0 0 0
221 2 4.6768240946911144e+00 1.0494914567280825e+01 3.3165332518456392e+00 0 0 0
526 1 3.8497656167025016e+00 2.9801792550924047e+00 3.8331834290029970e-01 0 0 1
612 2 1.1836137814010787e+01 2.9059582252549863e+00 3.3282000122891187e-01 0 0 0
109 1 1.3680101737175701e+01 6.2929736981663140e+00 7.3783252997691307e+00 0 0 0
110 2 1.3982269793233783e+01 5.7141988249323559e+00 8.1505864218067572e+00 0 0 0
111 2 1.2816637319107983e+01 6.6787583345151829e+00 7.7187639962576613e+00 0 0 0
112 1 1.4739514849205710e+01 6.5606989484287253e+00 2.7133202943055066e+00 0 0 0
113 2 1.4119117830336636e+01 7.2905425785575515e+00 2.5462966737281718e+00 0 0 0
114 2 1.5665306494163969e+01 6.9594615342586232e+00 2.6441203482462994e+00 0 0 0
115 1 1.0187431073042307e+01 1.0712269363718350e+00 2.6188333452422126e+00 0 0 0
116 2 1.0100947196250553e+01 1.8043403486490392e+00 1.9671927298823328e+00 0 0 0
103 1 1.0076506905592485e+01 2.5956925649312637e+00 5.1880678053629126e-01 0 0 0
118 1 9.3885207219321742e+00 1.2450932904513259e+00 7.2704371329133481e+00 0 0 0
119 2 9.5230995349396323e+00 2.0345701717244484e+00 7.8126235479606576e+00 0 0 0
120 2 9.3494726301757254e+00 1.5686343825914140e+00 6.3235221026214532e+00 0 0 0
121 1 1.5316621899979342e+01 2.7018486356718361e+00 2.6348138229007949e+00 0 0 0
122 2 1.5981696928231360e+01 3.3776527692087313e+00 2.9052566585176405e+00 0 0 0
123 2 1.5607437136068139e+01 2.2968664414155930e+00 1.7776502451138558e+00 0 0 0
124 1 1.3248622738207017e+01 2.5525936318788554e+00 7.4941162911211121e+00 0 0 0
125 2 1.4175163346195481e+01 2.8712210011513530e+00 7.3293026847633405e+00 0 0 0
126 2 1.3066307329224157e+01 1.8852553457842254e+00 6.8066800055268368e+00 0 0 0
127 1 8.3355631094708134e+00 4.8245355536907457e+00 7.3762525744995013e+00 0 0 0
128 2 7.9824981267472888e+00 3.9342127215555167e+00 7.2144156056311441e+00 0 0 0
129 2 8.1452655968593248e+00 5.2837891166109285e+00 6.5311729137585539e+00 0 0 0
130 1 1.0843218918372369e+01 4.6575943358892440e+00 2.3479504169069667e+00 0 0 0
131 2 1.1572034414876240e+01 4.0452875800709638e+00 2.5993219405598897e+00 0 0 0
132 2 1.0875284054470916e+01 5.3443662987848368e+00 2.9917463317468402e+00 0 0 0
134 2 1.5390740723391612e+01 4.0353241396118378e+00 5.8645854516767457e+00 0 0 0
136 1 1.2852280407378304e+01 3.2563358548977019e+00 3.8672053504560995e+00 0 0 0
137 2 1.3328693538281652e+01 4.0260817697488953e+00 4.3535793689239783e+00 0 0 0
138 2 1.3548413279762602e+01 2.9652030229409356e+00 3.2434733299309069e+00 0 0 0
139 1 8.3173627573124200e+00 4.2644400823816841e+00 3.2679392974847161e+00 0 0 0
140 2 9.0488673136725772e+00 4.3829980575611236e+00 2.6408211436228126e+00 0 0 0
141 2 8.5883792181888143e+00 3.5007840959919756e+00 3.8199175793682048e+00 0 0 0
142 1 1.0796339366136728e+01 4.0835756690570015e+00 6.5209304575830460e+00 0 0 0
143 2 1.1596188375999473e+01 3.7191860256134208e+00 7.0317833971041477e+00 0 0 0
144 2 1.0118033110592071e+01 4.4632491401363472e+00 7.1337880698801710e+00 0 0 0
147 2 1.7076532140544479e+01 7.7924954624345331e+00 1.0740699971792003e+00 0 0 0
148 1 1.1178249422216174e+01 7.2275012744276239e+00 8.2360769307321622e+00 0 0 0
149 2 1.1179534411972998e+01 6.3764801100013910e+00 8.7305711168023166e+00 0 0 0
150 2 1.1483710396207620e+01 7.7759908659073842e+00 8.9886492203088153e+00 0 0 0
209 2 3.5932668388297828e+00 1.0884416505914169e+01 7.1377569507246665e+00 0 0 0
163 1 1.6053690968379364e+01 1.2228415925999176e+00 2.7395819263766302e-01 0 0 0
153 2 6.4929874412965036e+00 1.4580182753972253e+00 8.7707931708688243e+00 0 0 0
67 1 -2.4828463100490983e+00 4.2431232974701966e-01 8.3656816490560288e+00 0 0 0
155 2 1.2751222582492202e+01 1.4533920653183798e+00 1.2943716917106978e+00 0 0 0
293 2 1.2441022899689886e+01 1.0860783307054779e+01 7.2077752565990680e+00 0 0 0
157 1 1.4207964700437497e+01 5.2170593696055985e+00 5.0945494241087106e+00 0 0 0
158 2 1.4275957569964563e+01 5.9745958170239426e+00 4.4813566685574147e+00 0 0 0
159 2 1.3788336769689668e+01 5.5591350721833788e+00 5.9254089013377369e+00 0 0 0
160 1 9.6540388218004427e+00 2.5043116663577498e+00 4.6956770240503456e+00 0 0 0
161 2 1.0224903581002861e+01 3.2001749663347834e+00 4.9423114776346360e+00 0 0 0
162 2 9.9058413697557093e+00 1.9467414892387869e+00 3.9083876430493332e+00 0 0 0
254 2 1.5713985617543621e+01 9.3958854675465879e+00 5.3944936284856633e+00 0 0 0
218 2 7.5920823346464505e+00 1.1228395717494092e+01 6.5760194173694728e+00 0 0 0
217 1 6.7842624259467499e+00 1.0699533770443573e+01 6.2960358567397670e+00 0 0 0
169 1 6.3234980887486731e+00 8.1627450024801771e+00 4.9434947054803171e+00 0 0 0
170 2 6.9228204863418750e+00 7.3807496645268200e+00 4.8333266049572066e+00 0 0 0
171 2 6.8343167840763517e+00 8.6960759822466205e+00 5.5624505803123760e+00 0 0 0
172 1 3.9052200729447222e+00 8.2553846305903829e+00 5.7293094655330616e+00 0 0 0
173 2 3.7063416968351217e+00 8.9926730254419258e+00 5.0792313365448569e+00 0 0 0
174 2 4.8865538853718107e+00 8.1369537397193330e+00 5.4428342631073070e+00 0 0 0
2 2 7.4957631092211514e+00 4.3877356805687551e-01 4.6703238447473323e+00 0 0 0
521 2 2.0452424748776323e+00 5.7836360633350772e+00 9.5538449828592498e+00 0 0 0
192 2 6.6561463795938813e-01 9.7827925333092267e+00 8.8654978916726499e+00 0 0 0
199 1 1.4095484011486117e+00 8.5235267467679474e+00 2.8840070636139585e+00 0 0 0
200 2 1.1809128288137294e+00 9.1153874421322811e+00 2.1419708464544955e+00 0 0 0
201 2 7.3040376628861381e-01 7.7573718231046298e+00 2.8746588721799418e+00 0 0 0
202 1 3.3600515448183321e-01 8.5692290875856916e+00 7.5511991622696026e+00 0 0 0
203 2 -5.4072340351836368e-01 8.3069832167645767e+00 7.8184703546971841e+00 0 0 0
204 2 2.3560164282293794e-01 8.9528483716239666e+00 6.6739776754750473e+00 0 0 0
205 1 6.1281053893683950e+00 1.0008499058106448e+01 2.8071171585658359e+00 0 0 0
206 2 6.1000782533766928e+00 9.2716324931483669e+00 3.4814636179725471e+00 0 0 0
207 2 6.2380047533558463e+00 9.6264149484372208e+00 1.9388227403229046e+00 0 0 0
208 1 4.2150623819201058e+00 1.0187783618135722e+01 7.5276831799311363e+00 0 0 0
224 2 -1.6297254989494858e-02 1.1216047327835586e+01 4.3272186419860308e+00 0 0 0
671 2 8.4338139521141855e+00 5.8132609340903807e+00 8.6167386934999417e+00 0 0 0
305 2 1.1814076494202416e+01 1.0947167393271345e+01 2.9823769297989502e+00 0 0 0
610 1 1.2834077053003263e+01 2.7958834421851835e+00 2.8973135495076263e-01 0 0 1
35 2 -7.5059387828161728e-01 1.1510752872508618e+00 7.3848393532490766e+00 0 0 0
86 2 -1.3598962883332200e+00 5.7961100916790664e-01 4.8743238708802288e+00 1 0 0
753 2 3.9656986264238139e+00 9.3902778965526537e+00 8.8670641490943058e+00 0 0 0
235 1 -2.3182086306679692e+00 7.9773229764618421e+00 8.2517676783308893e+00 0 0 0
236 2 -2.5246602011469603e+00 8.8092627095710174e+00 8.6690843817121159e+00 0 0 0
238 1 3.8785592595412002e+00 8.2007665057257135e+00 1.8105124095359095e+00 0 0 0
239 2 3.1960858444665767e+00 8.5042370510259975e+00 2.3591990150182509e+00 0 0 0
518 2 7.5048612249228137e+00 4.5084875151651795e+00 4.0185924564781605e-01 0 0 0
244 1 7.9455148708300083e-01 9.9811060652077046e+00 5.2856235808782142e+00 0 0 0
245 2 1.0097147815073180e+00 9.5105147539182937e+00 4.4629611660703716e+00 0 0 0
246 2 1.5232592637525257e+00 1.0520747515334781e+01 5.6448740181856101e+00 0 0 0
135 2 1.5927894983862277e+01 2.5610565727455166e+00 5.7900021544739673e+00 0 0 0
237 2 1.4772838711724775e+01 7.5078589316946305e+00 7.9364415083867037e+00 0 0 0
253 1 1.5498772865942161e+01 8.6448793366889820e+00 4.7949027457163877e+00 0 0 0
255 2 1.5393363576675110e+01 9.1411762813764739e+00 3.9531972499476775e+00 0 0 0
256 1 1.2646508760629070e+01 8.6629802920356358e+00 5.1001768268785463e+00 0 0 0
257 2 1.3595666300264748e+01 8.3907491117113562e+00 5.0061990846303202e+00 0 0 0
258 2 1.2480071219434379e+01 9.4411034751684202e+00 4.5122431312037925e+00 0 0 0
146 2 1.7399934238964704e+01 6.3049719385104215e+00 1.3868760837827270e+00 0 0 0
272 2 1.0131938212319820e+01 9.7748609627007585e+00 1.1260091164021477e+00 0 0 0
166 1 1.1508411352472853e+01 6.3325257729218425e+00 3.0166032648544261e-01 0 0 1
276 2 9.5380281469958792e+00 1.0553765895474617e+01 8.6605178813729236e+00 0 0 0
283 1 1.0175128658319645e+01 8.6649941116521756e+00 2.4979308964169400e+00 0 0 0
284 2 1.0193367273091756e+01 9.2103123924924990e+00 3.3300621521193179e+00 0 0 0
285 2 9.3347466688768552e+00 8.1499665908676917e+00 2.3936249362807884e+00 0 0 0
286 1 8.9501585824652885e+00 8.8330205960449035e+00 7.1179192378280085e+00 0 0 0
287 2 9.6464584565538303e+00 8.2859101521126366e+00 7.5555071677258887e+00 0 0 0
288 2 8.1195075722817762e+00 8.4960545957356555e+00 7.5098307899990528e+00 0 0 0
289 1 1.5178308418374142e+01 1.0255768395926975e+01 2.8459429968286729e+00 0 0 0
145 1 1.7323472262133073e+01 7.2031471620014322e+00 1.8226345467118539e+00 0 0 0
291 2 1.5532236954628015e+01 9.7861545837875141e+00 2.0120942483292126e+00 0 0 0
292 1 1.3092722080257433e+01 1.0113899260858025e+01 7.3629956898665352e+00 0 0 0
780 2 1.3184401600536695e+01 9.8938418017787662e+00 5.1761247778716224e-01 0 0 0
294 2 1.2963921456076807e+01 9.4835868171692663e+00 6.5573215960183644e+00 0 0 0
670 1 8.2761375480944483e+00 6.3293586873129737e+00 9.4511528103470805e+00 0 0 0
248 2 7.4975532615764457e+00 8.2348419881434367e+00 7.2430776258318419e-01 0 0 0
306 2 1.3299464022136416e+01 1.0612453027879594e+01 2.8726352147054590e+00 0 0 0
301 1 1.5563475267920820e+01 1.1075773724890619e+01 6.2711825607299181e+00 0 0 0
319 1 6.5550982413186887e+00 8.1111322345277959e+00 8.3256483976057982e+00 0 0 0
320 2 6.5018353255611459e+00 8.9585263584870347e+00 8.7616157609193905e+00 0 0 0
321 2 7.0842972348596192e+00 7.5994546874394358e+00 8.9480827267079945e+00 0 0 0
322 1 1.2897563208823408e+01 8.3069864831856322e+00 1.6192149343292754e+00 0 0 0
323 2 1.2141479847353146e+01 8.5135564933429926e+00 2.1187267209242813e+00 0 0 0
324 2 1.2529692502788993e+01 7.4700084069235535e+00 1.2347699493835811e+00 0 0 0
328 1 9.8091588356566302e+00 1.0107219228573138e+01 5.0033052201276531e+00 0 0 0
329 2 9.4178598494701617e+00 9.6004844497080040e+00 5.7479235185469273e+00 0 0 0
330 2 9.1290918514678143e+00 1.0610112893007546e+01 4.5982176491673652e+00 0 0 0
165 2 1.6502291391882988e+01 5.4015875019691495e-01 8.5097412975239850e-01 0 0 0
167 2 1.1197726345270960e+01 5.6112617873610287e+00 9.4793473917488480e-01 0 0 0
311 2 1.0673345550434330e+01 1.1151304259089763e+01 6.1126196808058193e+00 0 0 0
271 1 1.0198426271098898e+01 1.0391196467868218e+01 3.2493694594594580e-01 0 0 0
668 2 1.2998707339957043e+01 1.9374264400002355e+00 9.2015009941971417e+00 0 0 0
585 2 3.5519830843797990e+00 1.8215147174372834e+00 9.2089831220167735e+00 0 0 0
247 1 6.9092132780710580e+00 8.9217308671038680e+00 3.2807418201999639e-01 0 0 0
210 2 4.1214025339894853e+00 9.4117870733115190e+00 6.8844870853546478e+00 0 0 0
151 1 6.6844220271353088e+00 6.2297612578465988e-01 8.2887249207641016e+00 0 0 0
156 2 1.1923778693040571e+01 6.7070328200847074e-01 2.3453757430036095e+00 0 0 0
222 2 3.0479701844653970e+00 1.0973225079984864e+01 3.2939366851585539e+00 0 0 0
274 1 9.4128460373103060e+00 1.0572340837059883e+01 9.6045507603085714e+00 0 0 0
16 1 5.4457792498739801e+00 4.9656204314514394e+00 5.2502681048473254e-01 0 0 0
84 2 3.0529210903725521e+00 6.7372128995697871e+00 8.7097179575002359e-01 0 0 0
70 1 3.7468962806165140e+00 5.4736151556456325e-01 1.7262724441283412e+00 0 0 0
102 2 1.4010568505885761e+01 4.1945841413414930e+00 2.8686462833327031e-01 0 0 0
83 2 1.9403828992065368e+00 5.7412551310007798e+00 1.1994453569861294e+00 0 0 0
189 2 2.1287063374170128e+00 1.0398152935609676e+01 5.0404232381864278e-01 0 0 0
154 1 1.2702503324829019e+01 6.1083475995345748e-01 1.8257575817848000e+00 0 0 0
584 2 2.6286372331584920e+00 7.3664915708493517e-01 9.3282939095473356e+00 0 0 0
97 1 1.4005696335940645e+01 4.8715901355191846e+00 9.7027769375224082e+00 0 0 0
751 1 3.6551320539210437e+00 8.8688239259887354e+00 9.6932405029297470e+00 0 0 0
100 1 1.4556766969862842e+01 5.0167613819194479e+00 3.3719596508573152e-01 0 0 0
187 1 1.1458603135848024e+00 1.0131766026245804e+01 5.3559519122683108e-01 0 0 0
486 2 1.1410183344209898e+01 1.9653622600136450e-01 9.5204633676345889e+00 0 0 0
528 2 2.9736524914769000e+00 3.4665608871958846e+00 3.5224523759958482e-01 0 0 0
517 1 8.4557026224949361e+00 4.7460503440418318e+00 2.6318445665836709e-01 0 0 1
776 2 7.5753966096794327e+00 1.0310155369109140e+01 9.5380604765553585e+00 0 0 0
309 2 7.3532756720025052e+00 1.1178139682502964e+01 3.2562832156692583e+00 0 0 0
692 2 -2.8097301542249786e+00 1.0885239480982083e+01 9.6676825476919603e+00 0 0 0
777 2 6.1869089788427463e+00 1.0977317997664166e+01 9.6278804374065032e+00 0 0 0
104 2 9.3717406441331654e+00 3.2052503703820863e+00 3.1417335815749703e-01 0 0 1
835 1 1.2643842583987272e+01 8.9633614171454408e+00 9.7309132743432087e+00 0 0 0
24 2 -4.2611168686898404e-01 3.3000085370262302e+00 9.6781890400754893e+00 0 0 0
604 1 1.1243752863013974e+01 4.8157906287524144e+00 9.7501610034042994e+00 0 0 0
482 2 -9.2602003417824985e-02 8.5745133603107954e-02 2.3123474290813872e+00 0 0 0
99 2 1.3094318483710939e+01 4.7018083655011669e+00 9.7457272255867977e+00 0 0 0
536 2 -2.6545399049110365e+00 4.0899565239303154e-01 1.2212557268961293e+01 0 0 0
333 2 8.4594877488196865e+00 8.5636593552141740e+00 1.9211898827899674e+01 0 0 0
808 1 9.5385787051175122e+00 1.0856573594402125e+01 1.3163214952447692e+01 0 0 0
602 2 9.5768176983642253e+00 4.9214073861963206e+00 1.9198479177607702e+01 0 0 -1
583 1 3.0964581246472500e+00 1.3315827728973892e+00 9.9222727979199856e+00 0 0 0
826 1 9.6253102134304171e+00 8.3043286496679158e+00 1.0782552862953635e+01 0 0 0
249 2 6.3651239967206674e-01 9.3473750130723801e+00 1.8557019491591170e+01 0 0 0
810 2 8.9016025782006558e+00 1.1216631864678103e+01 1.2539763850612561e+01 0 0 0
79 1 2.2669661357353021e-01 1.8865402334187389e+00 1.9222919929568285e+01 0 0 0
332 2 9.5830699354396138e+00 9.4578504550035447e+00 1.8641492119569627e+01 0 0 0
906 2 -1.5231354683525034e+00 4.5533177452542561e-01 1.7088734947822132e+01 0 0 0
723 2 4.1961714662314940e+00 1.1259385737053988e+01 1.6561784213255287e+01 0 0 0
20 2 -6.2963317525987108e+00 3.4188191070698672e+00 1.9024748228775138e+01 0 0 -1
507 2 3.7429432163646501e+00 3.2663733233366093e-01 1.4249569508099752e+01 0 0 0
566 2 4.2462514916079499e+00 7.8846539403634308e+00 1.0922742590127175e+01 0 0 0
834 2 5.6840273559483583e+00 1.0693085444777841e+01 1.4193853186854732e+01 0 0 0
807 2 1.2655384284881276e+01 1.0290131628299372e+01 1.5687232024259121e+01 0 0 0
732 2 -4.1519079819028981e-01 1.1153822869714908e+01 1.5941352810537042e+01 0 0 0
505 1 3.3157088761035451e+00 1.2056016849947713e+00 1.3977037833348227e+01 0 0 0
506 2 3.4376525649002572e+00 1.9064817365603250e+00 1.4668907431308256e+01 0 0 0
98 2 1.4108085658100144e+01 5.6265349399794991e+00 1.0317809763367579e+01 0 0 0
508 1 7.8017117509929967e-01 1.2431222661910437e+00 1.4713682286121697e+01 0 0 0
574 1 3.9360351329058796e-01 6.1024275273067263e-01 1.1032234097612744e+01 0 0 0
510 2 1.6953803839347250e+00 9.0629481670932865e-01 1.4432872246628639e+01 0 0 0
511 1 -3.7400610196920421e+00 6.8152455980919981e+00 1.4586788575659094e+01 0 0 0
512 2 -3.9233328944622974e+00 6.0197066107742421e+00 1.4078093898207216e+01 0 0 0
513 2 -3.7909794308310198e+00 6.5309443948319981e+00 1.5513436333182623e+01 0 0 0
514 1 -1.0638232994148038e+00 6.6999623198452012e+00 1.4671386828905181e+01 0 0 0
515 2 -9.6650738862625740e-01 5.9578101786789777e+00 1.5238876282642027e+01 0 0 0
516 2 -1.9945449552180161e+00 6.9732517197478554e+00 1.4746329331838055e+01 0 0 0
524 2 -2.8017567490785820e+00 3.4276832238714534e+00 1.0043333328122092e+01 0 0 0
519 2 1.7653084978483351e+00 5.1649437744336657e+00 1.8428225381614169e+01 0 0 0
714 2 1.8633317115386463e+00 1.0468871868064344e+01 1.6770120033665222e+01 0 0 0
522 2 2.0571699099088336e+00 5.3719233994888178e+00 1.1074272116970370e+01 0 0 0
105 2 3.2148965734857287e+00 1.8629950128366457e+00 1.8965977830062712e+01 0 0 0
191 2 7.1881498565070290e-01 9.2606940927537522e+00 1.0308531027313775e+01 0 0 0
525 2 -2.1662053202176992e+00 2.4050129066358021e+00 1.0996126038731235e+01 0 0 0
794 2 1.2596501543232034e+01 1.0989254256589817e+01 1.2416714102982548e+01 0 0 0
527 2 -2.9765332060977023e+00 2.5047965849641809e+00 1.8582420273424475e+01 0 0 0
529 1 1.1214019120900609e+00 6.5091220086803077e+00 1.7128368023799098e+01 0 0 0
530 2 1.0543111379176207e+00 5.8441888177843477e+00 1.6406288512761535e+01 0 0 0
531 2 2.1716123366908846e-01 6.6939662202226460e+00 1.7432733105889724e+01 0 0 0
532 1 2.2133411714766984e+00 6.0070228652300299e+00 1.2557834185456580e+01 0 0 0
533 2 2.9962341984090184e+00 6.5197036640262596e+00 1.2529541502156805e+01 0 0 0
534 2 2.0504302717176248e+00 5.6023949954659136e+00 1.3448717976419303e+01 0 0 0
535 1 -1.9708898786607616e+00 1.1209148839378953e+00 1.2323726655760675e+01 0 0 0
824 2 2.3767724357097650e+00 7.6462235209681886e+00 1.7551227901579480e+01 0 0 0
537 2 -1.1545568265518753e+00 8.8401917704072097e-01 1.1905394552646372e+01 0 0 0
538 1 -3.0517630375983393e+00 1.5131747666234645e+00 1.6953137015244728e+01 0 0 0
539 2 -3.8925290035237516e+00 1.1218259146654657e+00 1.7118344245485851e+01 0 0 0
540 2 -3.0503131289884924e+00 1.8350006660356071e+00 1.6026712216076163e+01 0 0 0
541 1 2.9607636102397015e+00 2.8128015727413040e+00 1.2021528517881279e+01 0 0 0
542 2 3.2306865257701913e+00 2.0429112008307442e+00 1.2540985499388411e+01 0 0 0
543 2 3.0641042099005937e+00 2.4291553938828345e+00 1.1137997941646658e+01 0 0 0
544 1 9.1485392256115006e-01 2.9426481846788599e+00 1.6857735210270178e+01 0 0 0
545 2 7.3283743020082248e-01 2.6617120561933829e+00 1.7798472659941034e+01 0 0 0
546 2 7.3600336483214868e-01 2.1487074516689515e+00 1.6323420168051960e+01 0 0 0
547 1 -3.8378137780273676e+00 5.1969147437840393e+00 1.6727146683200040e+01 0 0 0
548 2 -4.4161774997230792e+00 4.4482384997116711e+00 1.6471179947456584e+01 0 0 0
549 2 -4.0925734139924739e+00 5.4685889012249280e+00 1.7622789822761739e+01 0 0 0
550 1 -1.4670473609789094e+00 5.2158636793657296e+00 1.2231751410010498e+01 0 0 0
551 2 -7.6591347533677778e-01 4.5821254014027621e+00 1.2412462542022368e+01 0 0 0
552 2 -1.4153516011394549e+00 5.6961463267801236e+00 1.3075794975944694e+01 0 0 0
553 1 3.5032088343982624e+00 3.2549604503995089e+00 1.5837045822083910e+01 0 0 0
554 2 2.9091064227938110e+00 3.1595712097096502e+00 1.6579128202567034e+01 0 0 0
555 2 4.2242735046231177e+00 3.8924867047302332e+00 1.6153876975122280e+01 0 0 0
556 1 5.7468903699079998e-01 3.4636115800856833e+00 1.2953850080959040e+01 0 0 0
557 2 1.4255540199441992e+00 3.3973285171713932e+00 1.2486276693304887e+01 0 0 0
558 2 5.9988074472973718e-01 2.6404590497605014e+00 1.3478084414176109e+01 0 0 0
559 1 -4.0330051673469631e+00 4.4021535992066818e+00 1.3202678850477929e+01 0 0 0
560 2 -3.4724575961260320e+00 4.5649891079681870e+00 1.2448494377685694e+01 0 0 0
561 2 -3.6543058290326158e+00 3.7181256687193285e+00 1.3808229207036256e+01 0 0 0
562 1 -1.2771401186769094e+00 4.3456825886882795e+00 1.6052627517981087e+01 0 0 0
563 2 -5.3907562605336334e-01 3.9566032366732662e+00 1.6559882265518887e+01 0 0 0
564 2 -1.9396627036805585e+00 4.7138039201459900e+00 1.6634758208974695e+01 0 0 0
565 1 4.6837781529294666e+00 7.2354953382294998e+00 1.1475988922050810e+01 0 0 0
107 2 9.5254802653357160e+00 2.1469286485393058e+00 1.0252897205257925e+01 0 0 0
567 2 4.8154220231276987e+00 6.3498939063393172e+00 1.1094480791225026e+01 0 0 0
568 1 -1.3116511815314791e+00 7.2675403775366068e+00 1.7943325744414636e+01 0 0 0
569 2 -1.3917442094040053e+00 6.4201161927264678e+00 1.8432574337306178e+01 0 0 0
570 2 -8.2325094243354435e-01 7.8893967869683763e+00 1.8577563978217746e+01 0 0 0
828 2 8.8286261771345682e+00 8.4308107382360156e+00 1.1338595937485570e+01 0 0 0
572 2 -5.9126028013377665e+00 1.2006277672765153e+00 1.7994097764306247e+01 0 0 0
164 2 8.6676722330257920e+00 7.8310974110551268e-01 1.8693523000043044e+01 0 0 0
620 2 6.2362651904834880e+00 5.0894995134159160e-01 1.2142559999282856e+01 0 0 0
576 2 4.8347349645051896e-01 1.5607823858576830e+00 1.0688015232921744e+01 0 0 0
577 1 1.7414697362878844e+00 5.0805358975225143e+00 1.4764420770877049e+01 0 0 0
578 2 1.1445288603876209e+00 4.4009386412369853e+00 1.4373118446073569e+01 0 0 0
579 2 2.5427853788200769e+00 4.5872897616416344e+00 1.5086077647087890e+01 0 0 0
580 1 -2.6161576392405217e+00 2.6351421245205877e+00 1.4570699365555514e+01 0 0 0
581 2 -2.2993107911711030e+00 2.0737147277341710e+00 1.3881702271077451e+01 0 0 0
582 2 -1.8814938397359384e+00 3.1372472102006723e+00 1.4941074553995691e+01 0 0 0
693 2 -1.3585787175409760e+00 1.0328048622392734e+01 9.9380571522441894e+00 0 0 0
22 1 4.8819902388004044e-01 3.0680895369178183e+00 9.7882883497477646e+00 0 0 0
589 1 1.2416678206120189e+01 8.0250016378555500e-01 1.4210599995678347e+01 0 0 0
607 1 6.4822800365829822e+00 2.5349334592142165e+00 1.0050309030139193e+01 0 0 0
591 2 1.2533740480115624e+01 1.7355134085074946e+00 1.4577811965758631e+01 0 0 0
592 1 9.4541798306856926e+00 1.4142782531547116e+00 1.4705949988269049e+01 0 0 0
601 1 1.0527769564856499e+01 4.9162124936420133e+00 1.9112131084371590e+01 0 0 0
594 2 9.2915522058484115e+00 2.0448968485732353e+00 1.3940038313159960e+01 0 0 0
595 1 4.9423390637803521e+00 6.5777624824307699e+00 1.4587959434943068e+01 0 0 0
596 2 4.8769623769344070e+00 6.0632507902591373e+00 1.5436403800340068e+01 0 0 0
597 2 4.9651857797302377e+00 5.9177616026747906e+00 1.3853812518060369e+01 0 0 0
598 1 7.7164619723909462e+00 6.4249501848798873e+00 1.4399927099252274e+01 0 0 0
599 2 6.8614731167873879e+00 6.8685856138717556e+00 1.4572644192024843e+01 0 0 0
600 2 7.6415621714923416e+00 6.0684990766987097e+00 1.3454041611445136e+01 0 0 0
19 1 -5.7337689253857542e+00 2.6655453540474228e+00 1.8952675909725770e+01 0 0 -1
603 2 1.0689283462973670e+01 5.0970865346739371e+00 1.8183691529475077e+01 0 0 0
728 2 -3.6223219929187560e+00 1.1104528949666445e+01 1.3673333872052229e+01 0 0 0