LAMMPS data file via write_data, version 3 Mar 2020, timestep = 0

2016 atoms
2 atom types

0.0000000000000000e+00 1.7967902694140093e+01 xlo xhi
-1.8307617101827205e+00 4.6826921687098320e+01 ylo yhi
0.0000000000000000e+00 1.9110291868792753e+01 zlo zhi
4.4193123464114352e-02 -6.6797984537188597e+00 -2.0389845079719748e-02 xy xz yz

Masses

1 16
2 2

Atoms # atomic

579 2 -2.2728453873242356e+00 7.1731271664779879e+00 1.5079678648505833e+01 0 0 0
223 1 5.3679665811718769e+00 5.8707537546612940e+00 5.0064864515007867e-01 -2 0 -1
780 2 6.0011136062966308e+00 7.9458839484123800e+00 2.9870966670264631e+00 1 0 -1
654 2 1.5323501866169416e+01 3.2266238774463947e+00 5.1239460688942664e+00 -2 0 0
394 1 1.0026345443668484e+01 5.9640047844668000e+00 1.6832546204778078e+00 -3 0 -3
578 2 -2.4256690077882568e+00 6.1121022373425111e+00 1.6253836229038111e+01 0 0 0
929 2 1.2960030727428929e+01 7.0689905999440121e+00 1.7363415415814718e+00 0 0 0
949 1 -3.4129035080940748e+00 -6.8350417399907482e-01 1.6777868228493226e+01 -1 0 1
705 2 -5.2566144643982300e+00 5.8091094471567013e+00 1.5369176741947301e+01 -2 0 -1
302 2 2.6255430508526976e+00 6.3552216061912521e+00 1.6738695274692322e+01 0 0 -1
299 2 1.0109345359055325e+01 1.1834990447568168e+00 1.7198628637955128e+01 -3 0 -2
164 2 8.9774481379974720e+00 8.2174123413032731e+00 1.1219005442578705e+01 2 0 1
150 2 1.3170497030456383e+01 3.4794183691239962e+00 2.1318362003000066e+00 -4 0 0
406 1 4.1538918521279147e+00 2.3408452848965968e+00 9.9932370205461538e+00 -2 0 -2
229 1 2.4323773854390605e+00 -1.7752316908498760e+00 6.6470110264523967e+00 0 0 -2
596 2 2.1852145918403232e-01 5.2780592113264504e+00 5.3140881798826225e+00 3 0 -2
951 2 -3.3556420056649592e+00 2.5622967597656565e-01 1.6538884873452634e+01 -1 0 1
165 2 7.6403502698071684e+00 7.6963430449444150e+00 1.0675909594250077e+01 2 0 0
881 2 1.2149084765664760e+01 3.8388553120226723e+00 6.9504970459501250e+00 -3 0 2
319 1 1.0659690559515203e+01 -6.7526946657580100e-01 1.4062786800204693e+01 -4 0 -3
53 2 1.2967898866427904e+01 1.1408211382634286e+00 3.1476366654307526e+00 2 0 0
515 2 -1.9804412590550489e+00 9.7836667433009925e+00 9.3480221931970586e+00 0 0 -1
609 2 5.5843223611674997e+00 9.7960353514483955e-01 2.7079052922051852e+00 -3 0 0
1583 2 1.2546046826575100e+01 -4.3512017184937757e-01 1.1853501930033403e+01 -1 1 1
122 2 7.7526898221519689e+00 7.8814318688328342e+00 1.3171001895322171e+01 -2 0 -1
295 1 -9.7567502316341359e-01 7.7272950910336391e+00 3.9715150767735441e+00 2 0 3
504 2 4.2813971643686983e+00 -6.3946353224058838e-01 9.0483880170174569e+00 0 0 -1
707 2 3.4877594836118790e+00 9.0932237945933831e+00 1.3068899659663387e+01 -1 0 -1
972 2 3.0399451391176662e+00 6.5577729611443960e+00 2.5297889308837185e+00 0 0 1
448 1 3.2462412562248697e+00 8.3120454114930098e+00 1.1354706369191755e+01 -1 0 1
244 1 1.1726633006095819e+01 8.6212410633937395e+00 1.3780465485636865e+01 -4 0 -4
921 2 1.0973033539936271e+01 -1.0528958278507234e+00 1.0214413549667091e+01 0 0 -2
687 2 1.9730985976358530e+00 -7.1359274243491044e-01 1.0241616544097619e+01 -3 0 0
617 2 2.5622885133223874e+00 8.2119290811684760e+00 6.2848909062080427e+00 -2 0 -1
214 1 1.4289250768428523e+01 8.7960281751012364e+00 4.0503483387756942e+00 -1 0 -2
301 1 1.8239493001790272e+00 6.2366086214003733e+00 1.6130384999598199e+01 0 0 -1
149 2 1.1854227156169269e+01 2.8253804657775108e+00 1.4923571462958887e+00 -4 0 0
270 2 1.8870849057961241e+00 7.1271520641918187e+00 1.4730669697123810e+01 2 0 -1
463 1 3.8862662893154543e-01 4.0590756703825877e+00 8.5286592678294717e+00 2 0 0
449 2 3.0575435647070104e+00 9.1250670173306681e+00 1.0855344274363043e+01 -1 0 1
524 2 1.2168188849346739e+00 2.6169833005413379e+00 1.6287567391426741e+01 -2 0 -4
585 2 -3.1877088962571003e+00 7.1790143554173067e+00 1.3623859846043386e+01 -4 0 -4
523 1 1.4278854558459289e+00 2.0670949277047761e+00 1.5486295472144359e+01 -2 0 -4
658 1 6.0593368602902871e+00 3.0112731006013567e+00 1.1999751912095864e+01 -1 0 -2
995 2 7.6892228751470775e+00 9.4520336014085409e+00 8.2364812805428542e+00 3 0 1
96 2 -1.4138939084055249e+00 1.5558325345042419e+00 6.1743573397955309e+00 -1 0 -1
441 2 -1.1134283207085636e+00 4.2969007505532373e+00 1.5552913183277022e+01 -2 0 -1
151 1 8.2692439696659772e+00 7.5683509075171251e-01 4.9195958294712190e+00 3 0 0
781 1 2.2960472480168226e-01 2.3197982330224676e+00 1.6590112207238341e+00 -2 0 -2
880 1 1.2250403104962203e+01 4.8065009296866998e+00 6.7976070272939095e+00 -3 0 2
626 2 5.6913598662725420e+00 2.7082574572080427e+00 1.7014464247939507e+01 0 0 -1
85 1 -4.8221465396567282e+00 -4.4979393089335984e-01 1.8981474683708949e+01 2 0 -3
703 1 -4.9957929246920036e+00 5.4859692711864172e+00 1.4444481596355418e+01 -2 0 -1
382 1 1.6291736289612395e+01 3.6610785736018183e+00 3.3779915428945462e-01 -2 0 1
714 2 -1.3585817899465336e+00 -5.4010941363470577e-01 1.2014212654937880e+01 0 0 3
215 2 1.4409511315879673e+01 9.7264166525253746e+00 3.8876287912892118e+00 -1 0 -2
54 2 1.2412272507215276e+01 -3.1905361511607455e-01 3.0897257445468140e+00 2 0 0
698 2 9.7856269194385170e-01 1.0066658726875565e+01 1.8281247572871365e+01 2 0 3
689 2 8.3518721601642465e-01 1.4556505908431920e+00 6.5710878034545628e+00 -2 0 0
350 2 1.0858547080353517e+01 1.5188817241830321e-01 5.7232854136042448e+00 2 0 4
392 2 1.9128402738515886e+00 5.2666917179109420e+00 1.1146927907043219e+01 -1 0 -1
652 1 1.5395592523407778e+01 4.1698265139864654e+00 4.8546116795670384e+00 -2 0 0
52 1 1.2877186220552760e+01 3.2250911569628471e-01 3.6768346399754597e+00 2 0 0
356 2 -2.6359500779224980e+00 4.6964088783914759e+00 1.9001590249043602e+01 -4 0 -3
477 2 5.9259737247704178e+00 2.8800886170038718e+00 8.4711130363752165e+00 -1 0 2
500 2 5.5712380092432845e-02 1.0963572350772655e+00 1.4957685698079686e+01 1 0 0
367 1 1.1681067952925888e+01 9.6912874081609974e+00 4.9110286378008899e-01 -2 0 0
806 2 1.0598511670077013e+01 8.4307148700797185e+00 9.2426308682034950e+00 -4 0 1
616 1 3.1553452799318853e+00 8.4975629132460924e+00 5.5671399371612997e+00 -2 0 -1
810 2 7.8355336717016968e+00 7.8636436465386268e+00 6.4567657435534622e+00 -4 0 -1
930 2 1.3330215302131244e+01 7.7130384824551612e+00 3.1055942567788377e+00 0 0 0
702 2 3.6711510297792351e+00 1.2713766368002277e-01 1.3058494935338487e+01 -3 0 -3
501 2 -1.0090626040544244e+00 3.4991202524182574e-01 1.4127201945609215e+01 1 0 0
625 1 5.3122710302239318e+00 2.1826719686350495e+00 1.7775933537825860e+01 0 0 -1
391 1 1.4244332425623187e+00 6.1728824803574494e+00 1.1199451665768265e+01 -1 0 -1
101 2 4.3628295042865988e+00 5.6596921338813519e+00 1.1754215868082369e+01 -1 0 -1
384 2 1.7095790541822865e+01 3.4519636207055076e+00 8.2634659651956011e-01 -2 0 1
245 2 1.2381318264811568e+01 8.4605104000741225e+00 1.4483555578622560e+01 -4 0 -4
622 1 -4.8526657273245553e+00 2.0958616112067951e+00 1.8378121083968001e+01 -2 0 -2
624 2 -4.6859766959643263e+00 1.1616066617913021e+00 1.8625542170908513e+01 -2 0 -2
179 2 7.5678784944557620e+00 3.7271213964509320e+00 1.5808021270200609e+01 -3 0 -1
843 2 -9.3501640512998474e-01 -9.7118029344765056e-01 1.5694870024652156e+01 -5 0 -5
494 2 2.0566854524235749e+00 5.8532056149278073e+00 7.1048496604590525e+00 -3 0 -2
86 2 2.2455521242639498e+00 -7.9835652175786098e-01 6.8187752257653822e-01 2 0 -2
268 1 1.5106018436643911e+00 7.5483116623141218e+00 1.3916857142784350e+01 2 0 -2
600 2 -2.1190971177027658e+00 2.0006964826708580e+00 1.0226152853032309e+01 -3 0 1
49 1 1.1352851639118354e+01 4.7109101590709788e+00 1.0656192257130105e+01 -1 0 0
183 2 9.6416095690444070e+00 8.5267419453513273e+00 4.7615387051177418e+00 -1 0 0
464 2 -5.2303327192702787e-01 4.2556630742505988e+00 8.8519635547918618e+00 2 0 0
393 2 1.1055424753380660e+00 6.4566709815333905e+00 1.0298586284487909e+01 -1 0 -1
1664 2 4.2196207321489103e+00 7.9750305055804223e+00 1.6729989192849935e+01 -3 1 -1
354 2 7.7583119374452796e+00 5.7851846406246628e+00 9.6817436868408215e+00 -1 0 0
135 2 -1.6723836169179673e-01 1.3982227976242512e+00 1.1381268525194498e+01 1 0 -1
778 1 5.3886995361736147e+00 8.6801257893325054e+00 3.1053522922728298e+00 1 0 0
76 1 8.8459688159285399e-01 9.8884664734376830e+00 8.4191663209736376e+00 -2 0 -3
598 1 -3.0120083172075387e+00 2.4493079251211771e+00 9.8955873702038311e+00 -3 0 1
120 2 4.7994937094244028e+00 3.3608846492541851e+00 3.2481831115696895e+00 -2 0 -2
561 2 8.0233785856175430e+00 -6.5748803650946530e-01 8.1805648936639592e+00 -2 0 1
640 1 -7.1885296426777678e-01 4.1334263563055780e+00 1.3773081863600996e+01 4 0 -1
753 2 -4.8074835697394978e+00 5.0824033256018328e+00 1.8010476475080917e+01 0 0 2
527 2 5.8219938192561331e+00 -5.2482846532704674e-01 4.2191711226369417e+00 -2 0 0
119 2 3.7438606452376000e+00 4.3563352971218086e+00 3.7195482789580363e+00 -2 0 -2
525 2 1.8843503254425817e+00 2.7216822151184505e+00 1.4869204791720756e+01 -2 0 -4
495 2 8.4434589186444997e-01 6.8065950815749279e+00 7.4085881977547992e+00 -3 0 -2
971 2 2.9430349354517684e+00 7.5412449742491052e+00 1.2636229267806678e+00 0 0 1
185 2 5.2597729977912380e+00 -1.3827299284516670e+00 2.2289335744703653e-01 -4 0 -6
212 2 9.3564635866756909e+00 5.9950786529736018e+00 7.0623987019190855e+00 -5 0 -2
701 2 4.0779821584521363e+00 1.2308768370699075e+00 1.4036890459401658e+01 -3 0 -3
5 2 5.6291429860133277e+00 6.5891159911740722e+00 5.2463162233381446e+00 1 0 0
470 2 1.5686164513250517e+01 -2.3373481945472929e-01 3.0842891071036447e+00 -7 0 -2
471 2 1.4386391567644976e+01 -3.4434236297935628e-01 3.8915177257482498e+00 -6 0 -2
672 2 3.0184116991164656e-01 -1.0969941975607838e+00 8.6506304679387771e+00 -3 0 -1
184 1 5.9937561576632188e+00 -7.7230972678130638e-01 5.3127532946752287e-01 -4 0 -6
618 2 3.5504057603963237e+00 9.4315957491162834e+00 5.7441861798549940e+00 -2 0 -1
207 2 8.0725634823165286e+00 -6.9601307488507658e-01 1.5754663759425769e+01 3 0 0
846 2 8.3967151206939334e+00 1.5694525420368799e-01 1.7731716995073356e+01 1 0 1
627 2 4.8853080015203201e+00 2.8329320586482520e+00 1.8384675342108643e+01 0 0 -1
111 2 4.1241992172027437e+00 1.3373648816006050e+00 1.6801231181397707e+01 1 0 -4
869 2 -1.5562033452770434e+00 5.9677636545053669e+00 1.1056027470297566e+01 2 0 0
16 1 3.6613131902461049e-01 3.4198893416275338e+00 1.8010309000145750e+01 0 0 1
178 1 6.5533905647372253e+00 3.7705383525737561e+00 1.5881861529167109e+01 -3 0 -1
974 2 6.4757398767297349e+00 9.2122595875681457e-01 1.4710691384890737e+01 -4 0 -2
118 1 4.5984420904107006e+00 3.9778679434770767e+00 4.0122016302990753e+00 -2 0 -2
895 1 1.6626892468730336e+01 8.1923025297452252e+00 1.1493399031827121e+00 -2 0 0
623 2 -5.4985031567778275e+00 2.0808145717345017e+00 1.7673206892050857e+01 -2 0 -2
1668 2 5.6715577566211177e+00 3.8060520724847189e+00 1.2382138601785112e+01 -1 1 -2
644 2 8.0018817593684215e+00 1.2555908695044038e-01 1.2133141819897332e+01 -4 0 -3
571 1 8.8711476972227583e+00 1.4558996754308122e+00 1.9092671842814329e-01 1 0 4
83 2 -2.3015754069869603e+00 5.3657572932720328e+00 8.8667920931726432e+00 0 0 -3
239 2 2.0349733629003115e+00 4.9298280863999340e+00 1.5049535678799430e+01 0 0 0
716 2 3.3860434498397329e+00 1.7948140842849956e+00 2.4142919325552992e+00 1 0 2
717 2 4.4357740537311887e+00 2.2547570766589757e+00 1.2431251453521048e+00 1 0 2
240 2 1.1349829268065061e+00 4.2733747156866535e+00 1.3981999266168403e+01 0 0 0
904 1 9.4106244603298226e+00 8.3844114092519213e+00 6.5430616336643788e-01 -3 0 2
17 2 -3.9095553181832710e-01 4.0024398815426849e+00 1.7703004295318920e+01 0 0 1
779 2 4.5568125122881922e+00 8.2577652130890584e+00 2.8313105626671020e+00 1 0 0
572 2 2.0553460149479941e+00 1.7843403463134040e+00 1.8422560262791063e+01 1 0 3
435 2 9.1508933179562213e+00 7.4719852937678812e+00 1.8854053438475550e+01 -2 0 0
613 1 -1.4795785078149279e+00 1.6808507094492593e+00 1.8607069898458576e+01 -2 0 -1
246 2 1.1341799967687784e+01 7.7461638335180840e+00 1.3455459785997771e+01 -4 0 -4
238 1 2.0505959090241808e+00 4.3168230443993139e+00 1.4319357612840776e+01 0 0 0
522 2 9.4850184712338432e+00 1.6696776416591930e+00 1.0069573898121766e+01 -5 0 -2
715 1 4.2582875191270926e+00 2.1840505485842971e+00 2.1774482674656963e+00 1 0 2
115 1 1.3029789047131754e+01 2.9046469040598879e+00 1.4139073367490798e+01 -5 0 -5
426 2 1.0443128265962551e+01 4.3971622633805554e+00 9.1185166843218879e-01 -2 0 1
252 2 4.1331033116126941e+00 7.1819235990039214e+00 1.0470550302737596e+01 -3 0 1
216 2 1.5105688977449418e+01 8.3240763094946590e+00 3.7735403783329491e+00 -1 0 -2
831 2 1.8306402014643497e+00 9.1752343363997912e+00 4.3192664201745439e+00 -3 0 0
933 2 -2.3940882297507882e+00 1.8333991027212417e+00 1.7122380294582999e+01 -2 0 -1
991 1 1.3920307350625059e+01 -1.5536505265916354e+00 9.1629275505014363e+00 1 0 1
868 1 -1.1086543077582243e+00 6.2276432736038174e+00 1.1908901196951259e+01 2 0 0
590 2 6.1122197128599165e-01 8.8668231408502294e+00 1.3833490578067090e+01 -4 0 -1
18 2 7.3625149554108482e-01 3.8233648906132087e+00 1.8795277190094566e+01 0 0 1
205 1 7.3211969157379801e+00 -8.3551508523397722e-01 1.5153671760808164e+01 3 0 0
6 2 4.4764371882143852e+00 7.4221101702773620e+00 5.8346788894386350e+00 1 0 0
785 2 1.8877665731092266e+00 -1.4933745265799558e-01 2.9405977152220788e+00 -3 0 -2
870 2 -1.9331393644262240e-01 6.2051148483482219e+00 1.1684167681717970e+01 2 0 0
211 1 9.7895270915135519e+00 5.8241345505712880e+00 7.9144130517016054e+00 -5 0 -2
387 2 3.0902062137827899e+00 1.7447467451382721e+00 6.1843582795399055e+00 0 0 -2
407 2 4.9341300979784268e+00 2.5882606398972561e+00 1.0517921961395714e+01 -2 0 -2
643 1 7.4644104421104105e+00 -6.4732184701351914e-01 1.2427076448024186e+01 -4 0 -3
978 2 4.6885804025058322e+00 -5.3261832710986168e-01 1.8572915875083289e+01 -3 0 -1
830 2 1.5157388170426016e+00 1.0271826026771354e+01 3.2701855746999331e+00 -3 0 0
635 2 1.4834734805402251e+01 8.1577572064848383e+00 8.3044753764058932e+00 0 0 -2
116 2 -4.4710597666929912e+00 2.3524682752355659e+00 1.4770584068582192e+01 -4 0 -5
224 2 6.0925991090200107e+00 5.4435433588447673e+00 1.0314130534498338e+00 -2 0 -1
1582 1 8.7198669463642897e+00 8.9291399651311512e+00 1.6267414450931152e+01 0 0 0
351 2 1.1698713909428747e+01 8.6115753201038370e-01 4.7294723495535083e+00 2 0 4
117 2 -4.9132865851214058e+00 3.8821419230081773e+00 1.4427641392192857e+01 -4 0 -5
931 1 -2.7339497991181383e+00 2.2406257132994982e+00 1.6284081087610101e+01 -2 0 -1
429 2 -3.9329000938984304e+00 7.8862273043963960e+00 1.6367516517870676e+01 0 0 -1
385 1 2.3477541657588459e+00 1.1697637452566938e+00 5.8747340208209513e+00 0 0 -2
502 1 3.7228806019292837e+00 -6.9047494892344830e-01 9.8464576981378240e+00 0 0 -1
467 2 7.9897992262517592e-01 8.3568726520967793e+00 8.9838933801680003e+00 -1 0 2
42 2 4.2581271430938479e+00 5.5271226335934074e+00 7.1173315186168455e+00 -2 0 3
726 2 1.4668965392009250e+01 1.1292000477477586e+00 6.9770814289440271e+00 1 0 1
876 2 1.2924560084115861e+01 8.6047539349423037e+00 1.1836373103625169e+01 -3 0 1
769 1 1.4971238162261351e+01 5.6060698615064561e+00 7.1022051806677746e+00 0 0 -3
1002 2 8.3594468461218483e+00 2.0665807932407239e+00 1.9565595113946139e+00 -1 0 1
4 1 5.1974710287416466e+00 6.7920646498679460e+00 6.1361685519255227e+00 1 0 0
905 2 2.6899501206377625e+00 8.3456874434042181e+00 1.8846287626951199e+01 -3 0 1
41 2 3.6619368613376890e+00 5.3163830942052801e+00 8.6766874901767093e+00 -2 0 3
925 1 1.3773897391328781e+01 -1.7474489226235796e+00 1.1898154792132825e+01 1 0 2
812 2 9.6347097112114444e+00 3.1041343216138531e+00 1.4754021206102381e+01 -2 0 -1
932 2 -2.0922176579799845e+00 1.8078134542025688e+00 1.5656451124467097e+01 -2 0 -1
1584 2 9.5629955826576456e+00 9.3878660541154542e+00 1.6363675532007054e+01 0 0 0
213 2 9.5721846007029825e+00 4.8583979178764425e+00 7.8955348359576050e+00 -5 0 -2
250 1 4.3790544490407992e+00 6.2444059192919177e+00 1.0140615856004406e+01 -3 0 2
700 1 3.3504945688330379e+00 9.2235193414248107e-01 1.3522531956497838e+01 -3 0 -3
338 2 1.4321897184014967e+00 4.9390426264072174e+00 3.1991421857212656e+00 -1 0 -1
559 1 8.3775025200698696e+00 -1.1437999051320489e+00 7.3718473803439419e+00 -2 0 1
969 2 2.7035219087184710e+00 3.2221422866850347e+00 1.0308166570438106e+01 -1 0 1
545 2 4.6848864319639700e+00 -5.8810226991014058e-01 1.6669351687132096e+01 2 0 1
386 2 2.3363980530030535e+00 1.1411371608501453e+00 4.8770832881166326e+00 0 0 -2
506 2 7.0860371500600516e+00 6.9890637106652971e+00 1.8574954963463593e+01 -4 0 -3
40 1 3.5856586213203197e+00 5.0988810301503973e+00 7.6917982193463521e+00 -2 0 3
786 2 1.4535756483944497e+00 1.2803775388037346e+00 2.7150624893832602e+00 -3 0 -2
939 2 8.9953409546717609e+00 9.9618525499949122e+00 3.2079939432418367e+00 1 0 1
724 1 1.4311781342186261e+01 7.4416749082798272e-01 7.8165458521685354e+00 1 0 1
784 1 2.1584882719785456e+00 7.9562107385576919e-01 3.1305979952925505e+00 -3 0 -2
967 1 1.9298090226573623e+00 3.6831284855899558e+00 1.0662281347602857e+01 -1 0 1
553 1 8.1503494599322419e+00 5.0239600387989691e+00 1.3079137917830222e+01 -5 0 -2
681 2 6.9787600053609813e+00 1.5889185688370975e+00 1.9074799232434291e+01 -3 0 -3
649 1 6.7901461261931537e+00 -1.1808567543640636e-01 9.6184954663463262e+00 -4 0 0
650 2 6.7891781432215668e+00 -9.6293226303049761e-01 1.0162466398234026e+01 -4 0 0
51 2 1.1748508502331141e+01 5.2673710032281482e+00 9.9606049712400413e+00 -1 0 0
36 2 1.1729818000504611e+01 5.4989669537933086e+00 5.1439576619462004e+00 -2 0 0
945 2 4.2057488762618647e+00 3.4961520874176699e+00 7.3031105744401765e+00 0 0 3
673 1 -4.9641863478535635e+00 8.1468802247919427e+00 1.9031258716289763e+01 0 0 -4
896 2 1.6934941516503354e+01 9.0754066876073054e+00 1.1771291213427879e+00 -1 0 0
397 1 1.1012482961454214e+01 8.6880024729706697e+00 7.3746921219924610e+00 2 0 0
127 1 1.4407377378361872e+01 4.7110128292596647e+00 2.3346290892710839e+00 -2 0 -1
128 2 1.4818835864160517e+01 4.4960678967837193e+00 3.2115626666844630e+00 -2 0 -1
1407 2 1.0454655019403580e+01 8.3324632831761463e+00 6.6457679288911056e+00 2 0 0
34 1 1.1249232503730628e+01 5.7606358076027258e+00 4.3456132392690359e+00 -2 0 0
928 1 1.2905918121654866e+01 6.9188496920316602e+00 2.6637521685318832e+00 0 0 0
459 2 -1.2637314205915808e+00 -1.7645090252092375e+00 4.0889667436480108e+00 -2 0 -2
152 2 8.0914955976183514e+00 1.7847571685302777e-01 5.7240748517123032e+00 3 0 0
439 1 -1.5386258982723353e+00 4.5345502730535490e+00 1.6442523729978010e+01 -2 0 -2
961 1 1.5834636857604041e+00 -1.2917168553718619e+00 1.4803223940236837e+01 -3 0 -1
434 2 8.6555659490706987e+00 7.8838206537613438e+00 1.7351694008863273e+01 -2 0 0
747 2 -2.9431329589919435e+00 9.7418441880099689e+00 1.3074893392299851e+01 -2 0 0
783 2 6.6448571594626848e-01 2.4284724469290806e+00 8.1849967606172480e-01 -2 0 -2
148 1 1.2680932710415780e+01 2.6045490395858097e+00 1.9660467803510100e+00 -4 0 0
937 1 9.7883727366275224e+00 9.8218356653816947e+00 3.8127304330979896e+00 1 0 2
725 2 1.3343175162447519e+01 1.1486493117872341e+00 7.7537966178678612e+00 1 0 1
160 1 1.4016701434840259e+01 8.3813010972637283e+00 6.7199324863578438e+00 0 0 -5
129 2 1.3861145043984250e+01 5.5464193475105974e+00 2.4514072246980194e+00 -2 0 -1
829 1 1.0847789751705166e+00 9.6976836798234718e+00 3.9806887826443500e+00 -3 0 0
173 2 1.1405264577654975e+01 2.3714888682416255e+00 1.3801228941956760e+01 -1 0 -2
845 2 9.5535973556489182e+00 -8.7520435280825803e-01 1.7855806158937856e+01 1 0 1
712 1 -1.7482174203297425e+00 -9.3454001000235098e-01 1.2791882181135831e+01 0 0 3
977 2 1.1015670983893203e+01 -7.5801159100905768e-01 1.0726158449924785e+00 -3 0 0
462 2 1.0919230495694539e+01 5.9272543796568398e+00 1.2023893809261262e+01 -4 0 -2
651 2 7.1562586795109038e+00 5.9484958542209876e-01 1.0094441577717433e+01 -5 0 0
992 2 1.4148976818673141e+01 -6.7652635349156909e-01 8.7223741176824241e+00 1 0 1
611 2 1.3599785364740240e+01 2.3755819051483735e+00 1.0892829835975908e+01 -1 0 2
389 2 1.1496123183381330e+01 1.9534416203605471e+00 8.4415176684420761e+00 -1 0 0
750 2 5.2369533552965200e+00 5.9396321984612772e+00 1.4132087027315816e+01 -3 0 1
749 2 5.2677509580198167e+00 6.5068812560224352e+00 1.5771497758050261e+01 -3 0 1
102 2 3.5769927586676786e+00 5.1601341922481216e+00 1.2929077380455356e+01 -1 0 -1
497 2 8.0919305799892491e+00 3.1060067828685423e+00 7.7294587556607146e+00 0 0 1
498 2 8.7657255665915148e+00 3.2040759487172510e+00 6.2282439246710073e+00 0 0 1
395 2 1.0002654783652803e+01 6.8911260936382597e+00 1.3827551033940870e+00 -3 0 -3
538 1 1.9055523691118301e+00 -1.7160370413898931e+00 2.2878225366131191e+00 -4 0 -3
636 2 -3.2843667740628133e+00 8.0996867208234846e+00 9.8200812162981315e+00 1 0 -2
679 1 7.8906006359870986e+00 1.3695273124276133e+00 1.8870200850754905e+01 -3 0 -3
153 2 9.1903933616623412e+00 1.0581716394873393e+00 5.0631686759725349e+00 3 0 0
621 2 -4.0504482254820342e+00 9.6473003687776568e+00 1.9024236524268076e+01 -3 0 -1
433 1 8.7021912400077586e+00 7.1621756150379525e+00 1.8036820364751065e+01 -2 0 0
321 2 1.1016760175196429e+01 -4.9882272451677467e-01 1.3163173932341387e+01 -4 0 -3
943 1 4.8435823641233187e+00 2.8531087101263921e+00 6.8860533816952216e+00 0 0 3
775 1 1.1382937957355621e+01 -1.3484310323180977e+00 2.4597547577246739e+00 -2 0 2
697 1 1.2647840291133621e+00 9.5003419663553395e+00 1.7561480488014816e+01 2 0 3
220 1 -1.8893303765688607e-01 7.3140970615292478e+00 1.7674999754308423e+01 -2 0 -3
172 1 1.0446241820289393e+01 2.0414182223050155e+00 1.3793943517394816e+01 -1 0 -2
298 1 1.0662969560074000e+01 1.9858405791706764e+00 1.7140673437140588e+01 -3 0 -2
680 2 8.3650466302746498e+00 2.1821351620977314e+00 1.8944189992216753e+01 -3 0 -3
65 2 5.9506312248836490e+00 2.9890346449472416e-02 8.0366328581189013e+00 -2 0 -3
251 2 5.3017859028551015e+00 6.3033319460161419e+00 9.8288100217696535e+00 -3 0 1
944 2 4.9141964904622331e+00 3.2234422616114413e+00 5.9776309295987309e+00 0 0 3
100 1 4.4595276264688550e+00 5.3148795409318783e+00 1.2650100531726119e+01 -1 0 -1
1667 2 6.0771378236748088e+00 2.4369184505651038e+00 1.2765496525005135e+01 -1 1 -2
352 1 6.9915648427961674e+00 6.4230324263144229e+00 9.4190394260382728e+00 -1 0 0
174 2 1.0484493544944245e+01 1.1204347586090235e+00 1.4142284133973757e+01 -1 0 -2
388 1 1.2095763002300389e+01 1.8751466748433065e+00 7.6623271093947167e+00 -1 0 0
465 2 5.6865245228090844e-01 4.8017597372048533e+00 7.8679223769073738e+00 2 0 0
84 2 -2.4501234335714375e+00 4.0128458021898545e+00 9.6646624829847134e+00 0 0 -3
460 1 1.0669484634094090e+01 6.3890315389362797e+00 1.2853870605639166e+01 -4 0 -2
607 1 6.3110193845260092e+00 3.0751911943505394e-01 2.8590214571559613e+00 -3 0 0
670 1 -8.2280241175536784e-02 -1.2808985912782940e+00 7.7597459931833406e+00 -3 0 -1
520 1 9.9138337734768527e+00 1.3729334772139339e+00 9.2501706654732665e+00 -5 0 -2
349 1 1.1010934318165850e+01 1.0684464844730694e+00 5.4404365358866933e+00 2 0 4
595 1 -3.3037039709558513e-02 5.1983657538152546e+00 4.3769405241127997e+00 3 0 -2
528 2 5.2448735100799864e+00 -5.6517436261789222e-01 5.7389029169277057e+00 -2 0 -1
109 1 3.5587297700413565e+00 5.9069691191825724e-01 1.6447847348177621e+01 1 0 -4
615 2 -7.0266959068036794e-01 2.2310824832514831e+00 1.8309148953156576e+01 -2 0 -1
466 1 5.0579833676210040e-01 7.3892652893234718e+00 9.0545783581930088e+00 -1 0 2
461 2 9.9041085890967597e+00 5.8827590005853434e+00 1.3197113235903048e+01 -4 0 -2
599 2 1.4716731036938592e+01 1.7870009062394905e+00 9.1772064790589081e+00 -4 0 1
408 2 4.1470896125419685e+00 1.3731331390366397e+00 9.9097374254658455e+00 -2 0 -2
344 2 -4.7224115549507122e+00 -1.7079915691083705e+00 1.5543917571974223e+01 -1 0 1
182 2 1.0114486144612174e+01 7.0706927606776873e+00 4.9281017529670921e+00 -1 0 0
35 2 1.2011838143059112e+01 6.0838574239951644e+00 3.8242809586124560e+00 -2 0 0
87 2 -4.2238220131637441e+00 -6.2107033906457554e-01 1.8278476547062194e+01 2 0 -3
231 2 2.8413693496843915e+00 -9.8157381889323059e-01 6.2418284925202796e+00 0 0 -2
475 1 6.8437747368116444e+00 2.8034816660322894e+00 8.8788250999237572e+00 -1 0 2
68 2 1.0121409539080943e+01 4.4272054904693494e+00 1.8001749329995377e+01 -4 0 -3
526 1 5.5001429987020254e+00 -1.1225726509318994e+00 4.9447365525160683e+00 -2 0 0
133 1 -8.1742756574855546e-01 9.7080817768159688e-01 1.0787012473351471e+01 1 0 -1
610 1 1.2790720041593934e+01 2.4107316855310676e+00 1.1447462292621156e+01 -1 0 2
675 2 -4.9474313546786499e+00 7.4975861963455444e+00 1.8297939847080190e+01 0 0 -4
82 1 -2.0426077021997688e+00 4.8676518484726197e+00 9.6779731977161738e+00 0 0 -2
300 2 1.0165828182639689e+01 2.4832992378134184e+00 1.6473797000760324e+01 -3 0 -2
503 2 4.2542542134497054e+00 -1.0997005177130754e+00 1.0518678192402414e+01 0 0 0
782 2 -4.6350721704014947e-01 1.6591898004425949e+00 1.5145374818182629e+00 -2 0 -2
690 2 7.4505729258669273e-02 2.4181859029600021e+00 7.6161816155943765e+00 -2 0 0
230 2 1.4964748069661851e+00 -1.6115871900948138e+00 6.9382415014747547e+00 0 0 -2
728 2 8.3081991720064288e+00 4.6642257013345763e+00 1.1179740970061983e+01 0 0 1
113 2 9.1362119683664442e+00 1.9810334794962774e+00 1.2341953445467357e+01 -2 0 -1
269 2 1.3761321155163424e+00 6.7622037988309991e+00 1.3359307335279023e+01 2 0 -1
493 1 1.2257646617564051e+00 6.2137991836096891e+00 6.7404656485262722e+00 -3 0 -2
222 2 -9.1261525013797229e-01 7.6868681753150945e+00 1.7123699079348530e+01 -2 0 -3
368 2 1.0762009158716664e+01 9.3525893616995788e+00 5.7565958504668868e-01 -2 0 0
67 1 1.0159287268529010e+01 4.9650180006267908e+00 1.7170855544108335e+01 -4 0 -3
727 1 8.5834143986775935e+00 4.3986988372777178e+00 1.0290392670928250e+01 0 0 1
114 2 7.8699855828573169e+00 2.4108880126902754e+00 1.1548356130474760e+01 -2 0 -1
425 2 1.0032065509560894e+01 2.9496773027317333e+00 3.3074531581430477e-01 -2 0 1
428 2 -4.5265551197966634e+00 9.3549489265345738e+00 1.6558604964576425e+01 0 0 -1
875 2 1.2148660118977986e+01 8.0408406096344418e+00 1.0679846412135536e+01 -3 0 1
1001 2 7.8059956319344712e+00 1.6177316735585396e+00 3.3059523682539851e+00 -1 0 1
496 1 8.8770207590681540e+00 3.0112975068331158e+00 7.1492406880394928e+00 0 0 1
655 1 4.2572804128109460e+00 7.0340649517086717e+00 1.7008437617936501e+01 -3 0 -1
337 1 2.3110638454104575e+00 5.0341841617578194e+00 2.7849245836507071e+00 -1 0 -1
575 2 8.6359237923831209e+00 8.5951277578881999e+00 1.5312321277876270e+01 0 0 0
221 2 -5.9740054202956028e-01 6.8020093383866254e+00 1.8444534972819042e+01 -2 0 -3
920 2 1.0569057950895841e+01 -6.5892648720062241e-01 8.7407525725646700e+00 0 0 -2
583 1 -2.4023195998202578e+00 7.6811476993733390e+00 1.3447661032056647e+01 -4 0 -4
584 2 -1.9143404647306732e+00 7.2346707127819396e+00 1.2658021008234583e+01 -4 0 -4
641 2 -1.0767255173676018e+00 4.6992846886219306e+00 1.3064590402305207e+01 4 0 -1
110 2 2.8826710151591142e+00 1.1069512642367347e+00 1.5890330996143634e+01 1 0 -4
919 1 1.1000754036295092e+01 -1.3896141711932219e+00 9.2845391512936146e+00 0 0 -2
897 2 1.6564856783980940e+01 7.8943129189517691e+00 2.0673116251232773e+00 -2 0 0
922 1 4.3050115970287175e+00 9.6394728596324146e+00 1.6021286608227513e+01 -3 0 -3
808 1 7.2584825833713822e+00 7.8611087409626617e+00 7.2598835621092572e+00 -4 0 -1
634 1 -2.6320798330849837e+00 7.9626483784873443e+00 9.0969786469212579e+00 1 0 -2
577 1 -2.3537993333634080e+00 7.0659380580595350e+00 1.6032325420777429e+01 0 0 0
161 2 1.4247972205660883e+01 8.5018840469659338e+00 5.7764461515353629e+00 0 0 -5
1000 1 8.2068096286462708e+00 2.3988390062376563e+00 2.8192294507616658e+00 -1 0 1
294 2 1.8928208841874605e+00 1.8622551645082184e+00 1.2992341042106691e+01 1 0 -3
390 2 1.1564087255370747e+01 1.5688444878092649e+00 6.9336901095540524e+00 -1 0 0
297 2 -2.2493382396706751e-01 8.3038724846936560e+00 4.0181159406704854e+00 2 0 3
521 2 9.5535187025965218e+00 2.0116035867774968e+00 8.5751499807896430e+00 -5 0 -2
813 2 9.5163973727624160e+00 4.3957699700396908e+00 1.5848041842892362e+01 -2 0 -1
912 2 9.4499183217637821e+00 4.8739505594595620e+00 4.4211912308719468e+00 -2 0 1
926 2 1.4082314104627493e+01 -1.6340245124604333e+00 1.0918858535575021e+01 1 0 2
177 2 5.5564787253220729e+00 -1.2717558646421794e+00 1.2663855084084682e+01 -5 0 1
771 2 1.4133102841387394e+01 5.1699256612440356e+00 7.2122269454491486e+00 0 0 -3
573 2 9.6321802177181084e+00 7.9549953813770724e-01 1.1854268153834141e-01 2 0 4
809 2 6.3236853802286621e+00 7.6378916893073292e+00 7.0107758938827445e+00 -4 0 -1
866 2 8.4429202164958816e+00 5.2634871642184269e+00 1.5030729235681808e+00 -3 0 0
94 1 1.5726081821178242e+01 1.6337748225798197e+00 5.6251637741861202e+00 -2 0 -1
225 2 4.8630730228154206e+00 6.4607478725572083e+00 1.0826979804160839e+00 -2 0 -1
770 2 1.4787986916133615e+01 6.5090881964587126e+00 6.8594213180172598e+00 0 0 -3
123 2 6.9730614883603135e+00 7.2491467012369846e+00 1.4455910723459240e+01 -2 0 -1
440 2 -2.2381025445092964e+00 3.8407600088847644e+00 1.6482362428381656e+01 -2 0 -2
383 2 1.5571938486781145e+01 4.0823474939530024e+00 8.8018665813923513e-01 -2 0 1
671 2 -5.1826049017299036e-01 -3.5655526339327825e-01 7.5328951714010941e+00 -3 0 -1
499 1 -9.0069342063022440e-01 7.0175503060141597e-01 1.5007533120267926e+01 1 0 1
910 1 8.6121285010339417e+00 4.3931080774481526e+00 4.5730100173636874e+00 -2 0 1
546 2 6.1287919286432730e+00 -7.4887593059340185e-01 1.6485871179942524e+01 2 0 1
511 1 1.0592432100577900e+01 -1.4315286579810664e+00 1.9009620504310799e+01 1 0 0
729 2 9.5401132469670618e+00 4.5696443528517303e+00 1.0447725193876458e+01 0 0 1
612 2 1.3052409271582487e+01 2.4407551468584563e+00 1.2402521481631103e+01 -1 0 1
674 2 7.8575549078884988e-01 8.1097903623403447e+00 1.8644842905384312e-01 0 0 -3
121 1 7.8234743762257883e+00 7.4601250930178296e+00 1.4054817725122689e+01 -2 0 -1
911 2 8.5996380979063396e+00 3.7139841192412488e+00 3.9000878738950133e+00 -2 0 1
424 1 1.0729862865845185e+01 3.5683083004013527e+00 4.3942789112678809e-01 -2 0 1
811 1 9.1273976422593677e+00 3.6809984873958177e+00 1.5290290355745121e+01 -2 0 -1