LAMMPS data file via write_data, version 3 Mar 2020, timestep = 6250000

2016 atoms
2 atom types

0.0000000000000000e+00 1.7967902694140093e+01 xlo xhi
-3.3445420900783027e+00 4.8340702066989934e+01 ylo yhi
0.0000000000000000e+00 1.9110291868792753e+01 zlo zhi
4.6942891992142910e-02 -6.6797984537188597e+00 -2.0389845079719748e-02 xy xz yz

Masses

1 16
2 2

Atoms # atomic

271 1 3.4889450590132660e+00 9.4364936630235690e+00 2.9393968672282251e+00 -1 0 -2
223 1 3.2486949540687320e+00 6.9785648598191976e+00 1.6495823421312841e+00 -1 0 -1
351 2 1.4784847364385357e+01 4.3842618264671049e+00 1.0179100204173843e+00 3 0 5
716 2 1.0713897642561657e+01 3.4543332181927289e-01 9.1002041532305107e+00 1 0 2
85 1 7.2621839142219589e+00 5.9868165036602772e+00 6.6913354037506689e+00 3 0 -2
962 2 1.2851985505288351e+01 1.2527812485874641e+00 1.0946821232023130e+01 -3 0 0
925 1 1.0188132046887937e+01 2.4967625274755703e+00 1.7028114941602674e+01 3 0 2
949 1 4.9865686542634426e+00 3.5009734331108699e+00 4.0561323489464609e+00 0 0 2
811 1 1.0903033391655324e+01 5.8220548831938626e+00 1.0046258362723117e+01 -2 0 0
1373 2 9.9461948562187779e+00 -2.3050272212037011e+00 6.5186600221628224e+00 0 1 0
722 2 -1.2328076239949466e+00 1.9402406740281615e+00 1.0062851473289390e+01 -4 0 -3
133 1 1.3252711470248492e+01 7.1313198778960398e+00 6.6246935750220903e-01 1 0 -1
139 1 -2.4463277985653349e+00 9.1911794088744525e+00 1.6209587049785718e+01 0 0 -2
64 1 1.7282653424701561e+01 2.2115979974041293e+00 7.9474429404298574e-01 -3 0 -3
43 1 4.5882557381071409e-01 4.8366975908311662e+00 8.0907273674876361e+00 0 0 1
872 2 9.3218470512633989e+00 3.1824146856540372e+00 1.0556290828007505e+01 -2 0 -1
582 2 3.2304133706148175e+00 5.4295294301587482e+00 1.3708279611015195e+01 -1 0 2
176 2 1.5987607009480358e+01 -1.3391424635010596e+00 4.9939249393206139e-02 -5 0 2
467 2 6.4119966363461689e+00 6.8805624172794531e+00 4.0270340835503742e+00 -1 0 3
846 2 1.5984254980500654e+00 -5.4227358221301625e-01 1.0474477138130126e+01 3 0 2
616 1 1.3722730102364633e+01 2.5340708759679949e+00 3.4430479252176003e+00 -2 0 -1
892 1 4.2476445339253406e+00 -1.6422474879576325e+00 1.5842138551526551e+01 -2 0 -3
388 1 4.5820539728157073e+00 -3.0358520203572770e+00 9.1827299584223532e+00 -1 0 0
232 1 5.4240883473581236e-01 6.5658878446538633e+00 1.9420076879220083e+00 -1 0 0
986 2 -2.0462455962650239e-01 -1.4783425781001680e+00 7.2324234576083688e+00 1 0 0
421 1 1.4714897242598092e+01 1.4417635824830777e-01 2.8878632131345698e+00 0 0 0
988 1 -9.3059059256396104e-01 1.0840588856686511e+00 1.1362398079349914e+01 -1 0 0
106 1 4.3495111225641558e+00 6.3287932195897572e+00 1.8150678334466019e+01 -2 0 -2
698 2 7.1550701298278039e+00 8.8762395145279172e+00 4.1821447527485478e-01 2 0 4
1636 1 8.6449839993444222e+00 4.4669575030938962e+00 3.6661292136794503e+00 1 0 1
44 2 2.4994900432884926e-01 5.8048632416291888e+00 8.0608650171708867e+00 0 0 1
714 2 1.0304355928374969e+00 2.4149257613212374e+00 4.2655721395586923e+00 0 0 3
547 1 -3.1144251319842224e+00 1.9590677608581926e+00 1.7149878402106236e+01 -3 0 -5
1100 2 9.0071732901007042e+00 7.6363175450927336e+00 1.5708381179285518e+00 0 0 1
132 2 1.2658100744208689e+01 3.1203970917519985e+00 2.0825425916390761e+00 -1 0 0
1554 2 -3.9254978977840311e+00 2.8910407977824173e+00 1.2012968901839839e+01 0 0 0
581 2 3.8123969657423551e+00 5.0607555490025344e+00 1.5195049859474016e+01 -1 0 2
1101 2 8.0217203109358035e+00 6.6274416871759030e+00 1.0886465412079198e+00 0 0 1
237 2 6.0301408799265150e+00 9.0812912701250355e+00 1.2870108031578170e+01 0 0 0
387 2 9.3665952331563140e-01 1.0881125178562865e+00 1.7429124632214602e+01 0 0 -2
374 2 -6.3714895202913979e-01 2.9021199203366130e+00 1.7203500394728000e+01 1 0 1
375 2 -9.4900435969060570e-01 1.7508074313338478e+00 1.8105448106381044e+01 1 0 1
3 2 8.8359318509032327e+00 -4.3485808999567777e-02 1.5837751054669555e+01 0 0 -2
183 2 3.3816012735836205e+00 -2.4554537716626927e+00 1.4036568118774904e+00 0 0 0
794 2 9.7607605537812105e+00 5.3924021416657908e+00 7.7509977930688194e+00 -1 0 1
751 1 -4.2264818224621967e+00 9.4660403131744637e+00 1.3313639603071694e+01 0 0 2
202 1 6.7836611032732552e+00 7.4276120014361382e+00 9.0909174657024430e+00 -3 0 0
123 2 1.3702976402945897e+00 1.6726803534587376e+00 1.3485677282806593e+01 0 0 0
717 2 1.0711585138104883e+01 9.7072687887301168e-01 7.6120939775945855e+00 1 0 2
21 2 8.9310447738828955e+00 5.9001187343627013e+00 1.6049582777087849e+01 -3 0 -4
958 1 9.7267386408924956e+00 2.4270820382826512e+00 1.3638796518439518e+00 2 0 1
570 2 2.2050172145828548e+00 -3.2006357889819976e+00 3.3334859971799204e+00 0 0 2
1130 2 -5.1509724711979485e+00 6.6084683917528650e+00 1.6835739231860344e+01 1 0 -1
918 2 5.7832516773075602e+00 -2.3592510427086237e+00 4.2768989605499836e+00 1 0 3
871 1 1.0240386034213950e+01 2.9936350763411665e+00 1.0360497630980085e+01 -2 0 -1
618 2 1.3513824328282857e+01 2.6451632225595567e+00 4.3964239970810803e+00 -2 0 -1
269 2 8.1417980432457107e+00 6.2378736614184742e+00 1.2162651871109524e+01 1 0 -1
784 1 4.2062689316510120e+00 8.2624570320220769e-01 5.9794247347761447e+00 -3 0 -2
231 2 4.4024939782424521e+00 2.0784886700722840e+00 3.2147629316125870e+00 -1 0 -2
734 2 8.6210114380820926e+00 3.1043309334080451e+00 4.9741548110296678e+00 -3 0 -1
1674 2 1.1046059334409559e+00 8.0249798132127541e+00 8.1301257833749254e+00 1 0 1
288 2 -3.0726471801668387e+00 5.5690687987272458e+00 1.6461896110317312e+01 2 0 -2
1877 2 1.3681440804593860e+01 6.2095755882401384e+00 6.2909921869006427e+00 0 1 0
121 1 2.1607453402287993e+00 1.6010627360347511e+00 1.2960376474908541e+01 0 0 0
1997 2 6.0948602467803799e+00 6.0981433710152686e+00 1.0352579586776969e+01 1 1 1
732 2 8.7673614656630718e+00 8.7607832187471821e+00 6.9807048179504125e+00 0 0 0
877 1 1.0405160047379258e+00 4.4755517096081787e+00 1.0717007847649775e+01 -3 0 -2
642 2 1.2788303892844959e+00 -2.5782574353676062e+00 1.1204132553741301e+01 4 0 -1
786 2 4.2515017315798929e+00 1.2198888796351923e+00 6.8907108742806065e+00 -3 0 -2
325 1 7.1382378104397270e+00 2.7041966396715473e+00 1.8004256168826338e+00 0 0 -1
952 1 3.8815475165272009e+00 1.0369891711143602e+00 1.5101590207147058e+01 0 0 1
845 2 1.8707381402053596e+00 6.8068399475574193e-01 1.1604851033614166e+01 3 0 2
1008 2 1.0603206924644095e+01 8.1430516904656063e+00 1.4236827692674190e+01 -3 0 -2
296 2 6.8003615904748544e+00 2.4767415825384447e+00 1.7120902060171829e+01 3 0 2
679 1 5.1089098330207428e-01 8.5793408515227458e+00 1.1937704484250007e+01 -3 0 -2
349 1 1.4195878149465841e+01 4.5665470011442979e+00 2.0769143937618437e-01 3 0 5
730 1 9.2598165341065162e+00 8.4187792491139923e+00 7.7743659154287181e+00 0 0 0
78 2 -5.9926938029596322e+00 -3.1920781862211780e+00 1.8257890056340194e+01 -2 0 -3
712 1 1.9229852173211304e+00 2.3072693709439278e+00 4.6939206839266499e+00 0 0 3
571 1 4.7849422467864891e+00 2.2462611044059182e+00 8.3867783692702833e+00 2 0 3
793 1 1.0436570906918586e+01 6.1024772001119736e+00 7.5187971419139750e+00 -1 0 1
1408 1 1.1207038147233494e+01 -1.0083788959733404e+00 1.0001300397288455e+01 -1 1 -1
107 2 4.9279889742740455e+00 6.7806792378607721e+00 1.8778068845651184e+01 -2 0 -2
422 2 1.4038876083693115e+01 -5.1842986467009400e-01 3.1159158470735462e+00 0 0 0
365 2 -1.7220033492161306e+00 3.9139720181294715e+00 9.7613145899356280e+00 2 0 0
619 1 1.5714359193450585e+01 3.7532431719828621e+00 2.3917750104915991e+00 -4 0 -1
569 2 3.7148825220686188e+00 -2.8936017925071322e+00 3.6642183058545106e+00 0 0 2
750 2 5.8737907933450151e+00 5.6872531134033188e-01 5.4334665179147974e+00 -2 0 2
575 2 1.4636375551772870e+01 8.6352092607923865e+00 2.9100680896494393e+00 1 0 1
927 2 1.0407493549865922e+01 2.4134372055710180e+00 1.7969367012446320e+01 3 0 2
272 2 3.2567499961434487e+00 8.4811182701555534e+00 2.7606295928710538e+00 -1 0 -2
655 1 -4.9944133008463192e+00 3.4552484374314307e+00 1.5629824256234098e+01 -2 0 0
1410 2 1.1594357004966040e+01 -7.3939371130054399e-01 1.0872073092009897e+01 -1 1 -1
560 2 1.4402356032998236e+01 5.3049297297916169e+00 9.6553902496596251e+00 -2 0 1
359 2 1.1412334570813890e+01 7.3907446052483099e+00 2.2892447864698626e+00 1 0 -1
526 1 2.5546283645347740e+00 4.8262086549410661e+00 6.2667798051528774e+00 -1 0 1
915 2 1.7675197796423610e+00 3.0285288033444120e+00 9.7984527846274325e+00 2 0 2
103 1 1.3278483826513193e+01 -2.5145824288820879e+00 7.0307103082632691e+00 -2 0 0
640 1 9.1646766419409342e-01 -2.0453083057239052e+00 1.0438203955457322e+01 4 0 -1
73 1 7.7165518992152418e+00 6.6618911851483276e-01 1.2412841531149088e+01 -5 0 -1
733 1 8.5937361799148224e+00 2.3161796031712303e+00 5.5589786347005088e+00 -3 0 -1
894 2 4.9414166100354997e+00 -2.1159991728102430e+00 1.6252247214691309e+01 -2 0 -3
1012 1 3.1879163269150474e+00 5.8187652895206021e+00 1.1842204364386825e+01 1 0 -1
812 2 1.0649466788233578e+01 4.8501035141342985e+00 9.9493862259737487e+00 -2 0 0
963 2 1.2144878032583060e+01 2.5733490223836046e+00 1.0825982399639431e+01 -3 0 0
1584 2 1.3460715753245175e+01 8.0488657354912050e+00 3.5779785920718239e+00 1 0 1
477 2 -3.3916874941454629e+00 -2.6002204814086385e+00 1.8108998607176105e+01 0 0 1
415 1 9.9372307527572090e-02 -2.1139282028315272e+00 1.7634876401781813e+01 1 0 -2
1940 2 1.2201588343472503e+01 6.3705451714132959e+00 1.3001679739388797e+01 0 1 0
287 2 -3.1662309090999732e+00 5.7316668043000920e+00 1.4899395283784832e+01 2 0 -2
723 2 -7.0799416003978743e-01 2.2794222610456627e+00 8.5830636015877051e+00 -4 0 -3
1129 1 -4.8633707573012801e+00 7.4416465458353525e+00 1.6274661296369956e+01 1 0 -1
1360 1 -4.6181088591841970e+00 -1.5678100000659567e-01 1.7086199897075051e+01 0 1 -1
989 2 -1.4602844158508970e+00 2.7016108021456153e-01 1.1527253834358490e+01 -1 0 0
820 1 -1.5697626483540237e+00 4.1030506781334459e+00 6.3098613828653924e+00 -2 0 1
86 2 7.9763438557465030e+00 5.4174235205179784e+00 6.9996219057664435e+00 3 0 -2
157 1 1.6426944370396356e+01 5.9323813087760247e+00 3.6977901301097860e+00 0 0 -1
1491 2 -2.7505899027070306e+00 1.5926243257831265e+00 1.5264661958081456e+01 1 1 -1
373 1 -3.5822812266797666e-01 2.5020068450768962e+00 1.8041402340705609e+01 1 0 1
356 2 1.2660662171225665e+01 -1.9624426926250440e+00 1.5015796595677887e+01 -4 0 -3
914 2 2.2459313534443752e+00 1.5622552052932370e+00 9.7754326556263003e+00 2 0 2
91 1 3.6750346836350056e+00 8.4796369095155537e+00 1.4659967609494068e+01 2 0 1
855 2 7.2578863457947680e+00 -1.1366434006489654e+00 2.7688660219553456e+00 -2 0 -2
24 2 1.7845571213980191e+00 5.7739816012194591e+00 1.5531671455880822e+01 -1 0 0
520 1 1.4123672929607668e+01 1.7956965886108360e+00 8.1447450115687747e+00 -5 0 -2
672 2 -2.1163489865476923e+00 -2.0784484724565866e+00 1.1135629179643660e+01 -2 0 -1
979 1 1.0331506700013698e+01 1.0897148424164653e+00 1.3201645775491938e+01 -2 0 -1
455 2 2.7611404963190028e-01 8.1116826411425524e+00 1.3819898998708795e+00 0 0 0
1374 2 8.5857403284533476e+00 -3.1794957513636977e+00 6.8128176889071499e+00 0 1 0
888 2 1.2050454939269155e+01 -1.3265702885741635e+00 4.0531393847539690e+00 -2 0 -1
203 2 7.6997944703259193e+00 7.4491546702024340e+00 9.5599923221703698e+00 -3 0 0
22 1 8.7733598472901697e-01 5.9508311766519562e+00 1.5826777030525529e+01 -1 0 0
697 1 1.6895798790302230e-02 9.3500195193643520e+00 1.8797876478813858e+01 2 0 3
235 1 6.1264638122583666e+00 8.2633904462369916e+00 1.3363305281418160e+01 -1 0 0
417 2 -6.8224788484943844e-01 -2.1409103206620452e+00 1.7056576992425622e+01 1 0 -3
25 1 -6.1929763873705657e-01 7.4210032287655334e+00 8.4603735332829189e+00 -1 0 -4
263 2 1.0203918437580741e+01 5.0972244733131955e+00 3.1997783442660950e+00 0 0 0
20 2 1.0031239621673329e+01 6.0607126180806805e+00 1.7149398254124979e+01 -3 0 -4
795 2 9.9659758874831219e+00 6.9761067627145561e+00 7.6349412004642803e+00 -1 0 1
1050 2 3.2974847442777921e+00 9.0180552469777968e+00 1.1041725615307669e+01 0 0 0
177 2 1.5180865910641728e+01 -6.7819325599430291e-01 1.2157060744676755e+00 -5 0 2
881 2 1.0989217776936520e+01 -5.9113992374458002e-01 5.7725736778200121e+00 -3 0 2
130 1 1.2084290985235807e+01 3.6353764156136243e+00 1.4771069693014736e+00 -1 0 0
386 2 2.2331067000314864e+00 3.0166604816336084e-01 1.7451524748780848e+01 0 0 -2
482 2 -3.0837384270617374e+00 2.1207781421661709e+00 1.3820083641115620e+01 0 0 -1
960 2 1.0579705837142942e+01 2.9075570942407936e+00 1.1808077169414981e+00 2 0 1
466 1 7.3540555592756709e+00 7.0635456377797770e+00 3.9651294724518995e+00 -1 0 3
832 1 1.0842557387869103e+01 9.9848185837426318e-01 5.5154426712915523e+00 -3 0 0
878 2 8.7604809937416084e-01 4.7206277611180258e+00 9.7770617678055984e+00 -3 0 -2
735 2 7.8300284006078371e+00 1.7578527640076986e+00 5.3695557491975121e+00 -3 0 -1
150 2 8.7003408454778128e+00 1.8511749632078089e-01 8.2668166857684646e+00 -4 0 -1
1876 1 1.4542967374325368e+01 6.2686153797584137e+00 6.8645736142892817e+00 0 1 0
166 1 3.8388018172541577e-01 -1.4825111678733238e-01 4.1815486587439699e-01 -3 0 -3
1914 2 8.1594398878595094e+00 3.5240410704746594e+00 8.4281208303508937e+00 -3 0 2
47 2 1.0652229327337306e+00 1.9014895609261826e+00 6.4798571202862938e+00 -4 0 -2
377 2 1.3613997688798412e+01 7.3931079611400961e+00 1.0050582986794531e+01 -3 0 -2
821 2 -2.2615587480777286e+00 4.6891708698741041e+00 6.6281304702630370e+00 -2 0 1
565 1 -3.5464321880337857e+00 -3.1620783760666962e+00 1.2484200160150431e+01 0 0 1
167 2 2.4982211464624698e-01 -1.0323011347606852e+00 1.0216584204943166e-01 -3 0 -4
936 2 -2.4042843257194080e-01 8.5015757403781631e+00 5.2658082041849612e+00 -2 0 0
1078 1 7.5343022204245189e+00 8.2492127014118548e+00 1.7433862637701708e+01 0 0 0
423 2 1.5422434544862647e+01 9.1542138784675320e-02 3.5540041525604216e+00 0 0 0
622 1 2.9476201858103743e+00 7.6010998288857543e+00 5.8974132428929771e+00 -2 0 -2
122 2 2.8326541568155337e+00 1.1335718895190690e+00 1.3590104064557512e+01 0 0 0
233 2 3.6929223978506398e-02 6.3994598002081879e+00 2.7548093827349174e+00 -1 0 0
834 2 1.1550393638442307e+01 1.6684850875972330e+00 5.4202443527043265e+00 -3 0 0
1878 2 1.4100441981413887e+01 6.1483458552971353e+00 7.7907993367897301e+00 0 1 0
521 2 -2.9301948051745761e+00 2.1763045944696291e+00 8.4637772561287132e+00 -4 0 -2
933 2 4.4519092170403463e+00 6.3327297746551920e+00 2.6424186609302915e+00 -1 0 0
390 2 4.6618329544917136e+00 -2.3746949293727173e+00 9.8928034588978448e+00 -1 0 0
1361 2 -5.3138208376419680e+00 -2.4958197383372127e-02 1.6417944987357419e+01 0 1 0
726 2 5.5686905804007800e+00 1.1278669543020081e-01 1.0629534449763232e+01 2 0 0
802 1 -7.0911575660736226e-01 3.8318093785155272e+00 1.5568313268697219e+01 -1 0 -2
517 1 1.1599576448740223e+01 4.4286777624917750e-01 1.4182253598791246e+00 -3 0 -3
468 2 7.4513122631730511e+00 7.3034172328592586e+00 3.0369708241423568e+00 -1 0 3
825 2 -1.2846137863898537e+00 3.0425217028382985e+00 5.1941325996675509e+00 1 0 1
264 2 1.1504929081889468e+01 4.8366750520986503e+00 2.3850046159723370e+00 0 0 0
33 2 -1.8915752846044613e+00 6.4911761986134451e+00 1.7913805520623200e+01 -4 0 -5
491 2 8.7645323389073990e+00 4.1676789563757080e+00 4.3862987988687718e-01 3 0 2
725 2 6.6294934456330914e+00 1.2541576157105228e-01 9.4653343345883130e+00 2 0 0
149 2 8.0770427847638953e+00 -1.0951113999196944e+00 7.8374501341991101e+00 -4 0 -1
861 2 8.3480977349227850e+00 5.2414330910092879e+00 1.4255714782302579e+01 -2 0 2
617 2 1.4080625974542887e+01 1.5965521649857131e+00 3.4120219999787360e+00 -2 0 -1
262 1 1.1134543058715444e+01 5.5069209059575321e+00 3.0207722534352124e+00 0 0 0
1637 2 8.1749979641429107e+00 4.0821402431994374e+00 2.9129038605482025e+00 1 0 1
439 1 1.1136221544940405e+01 3.5866372200387904e+00 1.3660480729345769e+01 -3 0 -2
1013 2 4.0506598531853495e+00 5.5492447375388938e+00 1.1555713438585666e+01 1 0 -1
224 2 2.2732488764742302e+00 6.8723286176475309e+00 1.6180131769578039e+00 -1 0 -1
1553 2 -4.1552857731080284e+00 4.2090247876864106e+00 1.2797358085055597e+01 0 0 0
589 1 6.6380933335848464e+00 -3.2885647186101070e+00 9.6020928055844990e-01 -4 0 -1
954 2 4.0916287758480685e+00 7.2378539337719872e-02 1.5447273138803105e+01 0 0 1
368 2 5.6307758028472632e+00 4.9797433682027625e-01 1.9037680027400796e+01 -1 0 -1
682 1 6.6118322060070733e+00 2.1289462050638699e+00 1.4588796280298251e+01 1 0 2
798 2 1.2321220669610764e+01 -2.9158979628893062e+00 9.9753975736580411e+00 -3 0 1
681 2 2.7904906817897679e-01 7.8010160347459134e+00 1.2487444005489117e+01 -3 0 -2
686 2 1.3660287478451021e+00 -4.3545213370543401e-02 3.6678227767465468e+00 -2 0 0
449 2 5.5671121052279329e+00 4.0629617081919873e+00 1.6336745264594672e+01 -1 0 0
950 2 4.9374433900578492e+00 4.4532599880929915e+00 3.8742511168214899e+00 0 0 2
1502 2 1.5816366597613154e+01 8.8941320818832015e+00 5.7598478449369050e+00 0 1 0
637 1 1.2264417986043185e+01 -1.1869707193774737e-01 1.2106398081411603e+01 -1 0 -1
129 2 6.8756858229288635e+00 3.9252716035815194e+00 1.0184744878320711e+01 -1 0 -1
114 2 4.0648524195769058e+00 1.5175576799654555e+00 1.7811229203824631e+01 -1 0 -1
347 2 6.7077909751041851e+00 7.0043056970947148e-02 1.1234328150227253e+00 0 0 -2
87 2 7.4953115719352414e+00 6.3190611154371297e+00 5.8456828104305876e+00 3 0 -2
639 2 1.2930594487405568e+01 -4.4251698006430962e-01 1.2802462486903872e+01 -1 0 -1
448 1 4.6177819893145671e+00 4.2993007950445907e+00 1.6474922429252345e+01 -1 0 0
887 2 1.2500847953627710e+01 -2.3430493756454087e+00 2.8761928737187841e+00 -2 0 -1
713 2 2.2427612378320445e+00 3.2290920544371016e+00 4.7263285120457121e+00 0 0 3
858 2 5.0808631125829713e+00 3.4747960584156781e+00 7.2950765147566745e+00 -2 0 -5
297 2 7.3520960074247892e+00 3.7755944108256516e+00 1.7869820045191961e+01 3 0 2
991 1 3.8806042331428445e+00 -1.6838754147728583e+00 6.8499739518636940e+00 1 0 1
990 2 -8.2173838560503887e-01 1.5291536811140487e+00 1.2245781200426817e+01 -1 0 0
804 2 -1.5930181770061997e+00 4.2813002764548180e+00 1.5440627170671005e+01 -1 0 -2
168 2 1.1158778920506833e+00 -1.8063086569953191e-01 1.0672656800538165e+00 -3 0 -3
841 1 1.3027458429401855e+00 -2.3312071286413172e+00 7.6540363111468563e+00 -5 0 -5
1552 1 -3.5419170571253420e+00 3.5238791934587672e+00 1.2654799364466315e+01 0 0 0
1544 2 -3.3187453521227934e+00 -4.8239726055100496e-01 1.4365368267095546e+01 0 0 -1
286 1 -2.9667033430282812e+00 5.0964575147105027e+00 1.5545446032768181e+01 2 0 -2
230 2 3.4428224125327667e+00 8.4919006161248856e-01 2.8967067962495561e+00 -1 0 -2
980 2 9.4166755992295386e+00 9.4547749803567793e-01 1.2821621461343259e+01 -2 0 -1
731 2 9.4987553098259152e+00 9.2218275475100082e+00 8.2955983729228979e+00 0 0 0
460 1 -6.9117250596026913e-01 4.1613211630441738e+00 1.2662402486490890e+01 -4 0 -2
1939 1 1.2190933173476257e+01 5.6466529827392566e+00 1.2333981418991604e+01 0 1 0
1014 2 3.2172612572209376e+00 6.8026156658978980e+00 1.1670812874825488e+01 1 0 -1
934 1 6.4267165726477726e-01 8.9555717582641368e+00 5.2383576526256777e+00 -2 0 0
837 2 8.2511141535419164e+00 -2.9980923697962849e+00 3.5704249242452724e+00 0 0 2
48 2 1.1388285504382640e+00 1.9093957757005153e+00 8.0253676452903324e+00 -4 0 -2
974 2 -8.3914948709489401e-01 4.3271806831834780e-01 4.3511744408424073e+00 -4 0 -1
1672 1 2.0345181292701855e+00 7.9575769270345038e+00 8.3943574000726713e+00 1 0 1
1131 2 1.2441616801756991e+01 7.4640349648497057e+00 1.5535995265541173e+01 0 0 -1
572 2 5.2140810074370911e+00 1.7196894580877053e+00 9.1165267765310052e+00 2 0 3
819 2 5.9564805293764778e-01 3.5802162928904471e+00 7.2908586927262509e-01 1 0 2
113 2 3.9571322550439643e+00 2.9750952037726215e+00 1.7202873684532289e+01 -1 0 -1
372 2 3.9024473727243185e+00 3.0019781303056288e+00 1.2175883372864238e+00 -5 0 -3
348 2 7.6014438584888007e+00 1.0705289227471235e+00 1.8632028427094667e+00 0 0 -2
905 2 8.7839478680530831e+00 3.2551179903025442e+00 7.0291263558222870e+00 -3 0 2
140 2 -1.7755056791908674e+00 8.5621129494563437e+00 1.6403314924831992e+01 0 0 -2
684 2 5.6899982412209864e+00 1.6861228543615328e+00 1.4630176773478150e+01 1 0 2
389 2 4.3698477284675175e+00 -2.5314357229372062e+00 8.3859022137267232e+00 -1 0 0
803 2 -5.1488775091004335e-01 3.3216463636802347e+00 1.4783661828986245e+01 -1 0 -2
600 2 9.8472899419111126e+00 -2.5340329629860312e+00 3.2495129411912949e-01 -4 0 2
364 1 -1.9449104628660963e+00 4.8626712451668865e+00 9.9054199902493405e+00 2 0 0
148 1 7.8053215417083228e+00 -2.5415470921221095e-01 8.2152081893535467e+00 -4 0 -1
385 1 1.3001732881872741e+00 2.1968746011334339e-01 1.7202562850018342e+01 0 0 -2
893 2 4.2187019894912261e+00 -1.9674559060201859e+00 1.4927058489647798e+01 -2 0 -3
951 2 5.2720976090262539e+00 3.4137653975382296e+00 5.0575384404055832e+00 0 0 2
172 1 1.2240105713011049e+01 5.8466622205134158e+00 5.6293724068180691e+00 0 0 -1
1665 2 1.2245539692808194e+01 3.4815924323213352e+00 1.5022956836716974e+01 -3 1 0
651 2 3.6457345177195264e+00 -6.0649885570950524e-01 1.1105717895287416e+01 -5 0 0
211 1 6.1043069222175887e+00 -2.3297546097769573e+00 1.7992008399758149e+01 -4 0 -3
638 2 1.1623305552759470e+01 3.8646028664445975e-01 1.2648877846532475e+01 -1 0 -1
880 1 1.1188543333646537e+01 -1.5562516872072092e+00 5.6965248910291839e+00 -3 0 2
369 2 5.7547549151371751e+00 -2.1021090244062179e-01 1.7684180167673937e+01 -1 0 -1
1503 2 1.5649860409275165e+01 7.3718458158621605e+00 6.0338983730144236e+00 0 1 0
649 1 4.5149362486460243e+00 -1.1177049224213533e+00 1.1108454879310520e+01 -4 0 0
626 2 8.3551607964023802e+00 -1.0543118050500797e+00 1.1918840059866234e+01 1 0 -1
757 1 -7.0184936201409798e-01 7.4508797451654853e+00 1.7194909190315173e+01 -1 0 -2
1857 2 3.7328913265473496e-01 6.5136528486127556e+00 1.4322843677578634e+01 0 1 0
358 1 1.0798770938076975e+01 8.0893483340747387e+00 1.9934436652786056e+00 1 0 -1
685 1 2.0257288082938780e+00 -1.9097167390924641e-01 2.9616100453542855e+00 -2 0 1
234 2 5.9664362116021730e-01 5.7347439766417772e+00 1.5054815382235820e+00 -1 0 0
590 2 6.9995383477227753e+00 -2.8449043506259972e+00 1.5753252562013365e-01 -4 0 -1
859 1 8.9062067217925343e+00 4.7929333825489522e+00 1.4928984903228416e+01 -2 0 2
1993 1 -8.5859569585804008e-01 -8.3614326329661104e-01 6.9444088649298683e+00 1 1 0
817 1 1.0809021808446384e+00 4.4301883426761632e+00 7.6829847822434172e-01 1 0 2
625 1 8.8964618964152891e+00 -1.7853625002715230e+00 1.1619577891536432e+01 1 0 -1
502 1 1.2491298463953095e+01 8.6712197448982202e+00 5.2777963331295048e+00 -1 0 -1
66 2 1.7438038725013868e+01 1.2369230929514092e+00 7.9192351770430469e-01 -3 0 -3
93 2 3.5607057193366902e+00 7.5086438117432230e+00 1.4623892795095143e+01 2 0 1
71 2 8.1669315911891829e+00 7.5189075160630736e+00 1.7174267148646901e+01 0 0 0
441 2 1.1414130390959212e+01 4.2270302993116520e+00 1.2986513410840807e+01 -3 0 -1
1667 2 4.4411954618716285e+00 8.3884206966150732e+00 5.6380991490921684e+00 0 1 -1
561 2 1.2874191189519554e+01 5.4361729151964848e+00 9.9522207332355137e+00 -2 0 1
127 1 7.5063755598599951e+00 3.1962495385815242e+00 9.9600230237976142e+00 -1 0 -1
899 2 7.3835916939086914e+00 -1.6789015849173579e+00 1.5656499848533167e+01 -1 0 2
680 2 7.2082177285170790e-01 9.2333083810675696e+00 1.2643003388529634e+01 -3 0 -2
844 1 2.2052403661035593e+00 1.7727875847697305e-01 1.0815173819462194e+01 3 0 2
652 1 1.0970066682560915e+01 2.0294125037660260e-01 1.5861289051609232e+01 -1 0 -1
128 2 7.0273650843880953e+00 2.3598212315198026e+00 9.9231061175181932e+00 -1 0 -1
1007 2 1.0155345910333237e+01 7.1421812691367386e+00 1.5393441520835777e+01 -3 0 -2
857 2 5.8123159195548393e+00 4.8434526187570857e+00 6.8189938071380274e+00 -2 0 -5
2 2 8.0485591918826351e+00 3.0203927146300558e-01 1.7031135813785852e+01 0 0 -2
1080 2 8.0913560395188249e+00 9.0539899710169323e+00 1.7653325650486480e+01 0 0 0
813 2 1.0916527686792969e+01 6.1287017759504252e+00 9.0978829841082494e+00 -2 0 0
818 2 2.0196761564926096e+00 4.2449536850614455e+00 8.5323530341446152e-01 1 0 2
46 1 6.3167033559260011e-01 1.5295439926804306e+00 7.2587523898914110e+00 -4 0 -2
683 2 7.1435869746832772e+00 1.6036813330896491e+00 1.5197798217726069e+01 1 0 2
134 2 6.9786040601609480e+00 7.6194058338691359e+00 1.9065941739300218e+01 1 0 -2
568 1 2.9445958863828379e+00 -2.5878703404161945e+00 3.1356982138723226e+00 0 0 2
204 2 6.9128356801763102e+00 7.0322324768031255e+00 8.1816532677078975e+00 -3 0 0
1492 1 5.1345455057854199e+00 1.8248430948977168e-01 3.2855084818489638e-01 1 1 0
759 2 -4.3720426635507881e-01 8.1225172047376351e+00 1.7951426473255232e+01 -1 0 -2
175 1 1.5089611661692050e+01 -1.1434435905152021e+00 3.4592219996772711e-01 -5 0 2
298 1 -2.9469415655941607e+00 6.9987122269082178e+00 1.3475998258874826e+01 -3 0 -2
993 2 4.3421263138065953e+00 -2.0377508282274057e+00 6.0591454801745410e+00 1 0 1
843 2 2.2453954829310105e+00 -2.2482097270164214e+00 7.4305935767934610e+00 -5 0 -5
1582 1 1.4218960840808180e+01 7.7398543010569920e+00 3.0171606770082851e+00 1 0 1
376 1 1.3822757112633838e+01 8.0827663109568473e+00 1.0733948168246986e+01 -3 0 -2
559 1 1.3606410925374796e+01 5.7844661035580440e+00 9.3862232022786181e+00 -2 0 1
1489 1 -2.5883798960018289e+00 1.3885169400276451e+00 1.4303290676344671e+01 1 1 -1
748 1 6.8113404476042341e+00 5.2198793956170197e-01 5.5097916654034531e+00 -2 0 2
823 1 -9.4519818449426818e-01 2.3338740522058128e+00 4.5403298641146925e+00 1 0 1
74 2 7.1075005722276696e+00 9.9390935102402889e-01 1.3119374434445080e+01 -5 0 -1
879 2 1.7228687821297002e+00 4.9574944985897762e+00 1.1169868797147346e+01 -3 0 -2
992 2 3.7700178938413420e+00 -7.3393069048389403e-01 6.6259634517802652e+00 1 0 1
527 2 3.5399472826476863e+00 4.4888874794776337e+00 6.4960767019121706e+00 -1 0 1
174 2 1.1475021610351208e+01 5.9872922841694898e+00 6.2322220624629896e+00 0 0 -1
135 2 1.3693632510591183e+01 7.4409134553500387e+00 1.5219248109280084e+00 1 0 -1
424 1 8.8296811248360250e+00 7.3710446466035044e+00 1.0677788514532541e+01 -2 0 1
580 1 3.2153184902891221e+00 5.6844212994136729e+00 1.4662232478655492e+01 -1 0 2
108 2 3.6484029871901935e+00 5.9719421287388261e+00 1.8651403167200229e+01 -2 0 -2
77 2 1.1446757007780802e+01 -2.2451933873539520e+00 1.7148890756032451e+01 -3 0 -3
475 1 -3.6965758815446428e+00 -2.7351262918753729e+00 1.7152019677720986e+01 0 0 1
1445 2 1.3587812138573215e+01 2.5540623251131889e+00 6.6315522687298936e+00 0 1 0
1638 2 8.1459517809570272e+00 5.2632226677586846e+00 3.7436846680093141e+00 1 0 1
882 2 1.1854882844513293e+01 -1.6973889381240399e+00 6.3796011457467658e+00 -3 0 2
1 1 7.9295599487559016e+00 1.7357293216090053e-01 1.6104812104101022e+01 0 0 -2
953 2 3.4797689033570958e+00 1.4750224687069053e+00 1.5871260151420286e+01 0 0 1
346 1 7.5684992746270883e+00 6.6859914097164630e-02 1.6055114852354517e+00 0 0 -2
641 2 2.4685355256854891e-03 -1.8664062791609390e+00 1.0521537266198658e+01 4 0 -1
749 2 7.0425365654948120e+00 1.9496121258701704e-01 6.3817242211551530e+00 -2 0 2
687 2 2.3776029217920698e+00 -1.1301089434784473e+00 2.9774760789603656e+00 -2 0 0
330 2 1.4589245764081875e+01 1.3542510676857411e-01 8.4135702395704097e+00 -1 0 -1
904 1 8.8227731154809454e+00 3.8974487235542217e+00 7.7946824806751129e+00 -3 0 2
1045 1 1.1746476761080869e+01 5.3838083180795682e+00 1.7353543347972909e+01 0 0 -1
758 2 1.1373106802137301e-01 6.9408730583739899e+00 1.7004609491961595e+01 -1 0 -2
856 1 5.1175353582778724e+00 4.2095835432218074e+00 6.6941795076590438e+00 -2 0 -5
62 2 8.8948470092844278e+00 -6.0245552851300532e-01 4.0518735894003721e-01 -1 0 -2
31 1 -2.7865769985642705e+00 6.1243149920889586e+00 1.8087624845170740e+01 -4 0 -5
573 2 3.9266907821564025e+00 2.5834259392847505e+00 8.7446857222983816e+00 3 0 3
101 2 -7.6756586241824643e-01 -2.7198022310699086e+00 1.4695591319595744e+01 0 0 -1
92 2 4.0841650299767220e+00 8.6896528132095145e+00 1.5565337991584149e+01 2 0 1
1047 2 1.1927537366547934e+01 4.5953224451215569e+00 1.6784779656278030e+01 0 0 -1
485 2 4.8297341116288059e+00 -7.4377304769095964e-01 1.7906754321412058e-01 1 0 0
486 2 4.6905508901302344e+00 5.2729624473098635e-01 1.1398875229585710e+00 1 0 0
450 2 4.6024001040815161e+00 4.9862747010237563e+00 1.7175406282820624e+01 -1 0 0
19 1 9.3046640721909846e+00 6.5516484330350799e+00 1.6695479488029857e+01 -3 0 -4
462 2 -1.7318668032816076e-01 4.2140274166234146e+00 1.1859026970861747e+01 -4 0 -2
1855 1 -1.5045852632710499e-01 6.6151130589365081e+00 1.3429049060054338e+01 0 1 0
1362 2 -5.0762667697892354e+00 -9.1188667359123787e-02 1.7927787787365968e+01 0 1 -1
1995 2 -3.9133592992480892e-01 2.8078634943967007e-02 7.1443346928497222e+00 1 1 0
824 2 -1.1873488461863733e+00 2.6476621383576440e+00 3.6939323831706852e+00 1 0 1
225 2 3.4957465958235274e+00 7.0895147567836396e+00 7.3784741580591651e-01 -1 0 -1
426 2 9.4458512877314664e+00 6.6469630272078266e+00 1.0479126483836545e+01 -2 0 1
528 2 2.7888460168483182e+00 5.6782058092604046e+00 5.8573055300744707e+00 -1 0 0
357 2 1.1303629373846235e+01 -2.6488575989989700e+00 1.4866526778622449e+01 -4 0 -4
1501 1 -1.6206666379676422e+00 8.0798260273198927e+00 5.7991861573623842e+00 1 1 0
295 1 7.2068141166833684e+00 3.3552679838291883e+00 1.6972754468176174e+01 3 0 2
822 2 -8.6981097334785340e-01 4.2641074264799039e+00 6.9804016735637324e+00 -2 0 1
932 2 4.4118787911161998e+00 6.8935419514071565e+00 4.1330018105985378e+00 -1 0 0
833 2 1.0013864913434205e+01 1.5022183722432718e+00 5.4498335632435149e+00 -3 0 0
416 2 5.6020162332250845e-01 -1.2933098582279796e+00 1.7421695870569643e+01 1 0 -3
492 2 1.0535764090434512e+00 4.7616352540759888e+00 1.8589267627360851e+01 3 0 1
63 2 1.0389470195292244e+01 -6.0127526245220153e-01 4.8614185402741411e-01 -1 0 -2
454 1 1.4020468610348436e-01 9.0673098992925194e+00 1.1841548668872375e+00 0 0 0
853 1 7.0201657188586539e+00 -1.5230900142040402e+00 3.6389262161089277e+00 -2 0 -1
620 2 1.5955441344701004e+01 4.5751291053681733e+00 2.8193802408102111e+00 -4 0 -1
975 2 -9.8325821445724615e-01 -9.6492131420944194e-01 5.2787812222716513e+00 -5 0 -1
45 2 1.2175117638189912e+00 4.6662889470767208e+00 7.3568738489324561e+00 0 0 1