LAMMPS data file via write_data, version 8 Apr 2021, timestep = 1705000

1008 atoms
2 atom types

0.19741886732010008 18.202136132681364 xlo xhi
-0.0021023737641910722 22.57249137376842 ylo yhi
0.23405528924835098 19.271660710749533 zlo zhi
0.318156117707432 -6.584333078011053 -0.04037961230456969 xy xz yz

Masses

1 16
2 2

Atoms # atomic

1 1 6.498563058930354 0.8513013282657309 4.92309051763107 0 0 0
3 2 6.323674692505101 1.1769258340107156 4.035643797487913 0 0 0
4 1 3.8169362164598537 0.994951792839755 5.119828557801629 0 0 0
6 2 3.630763147630097 1.3891911169931404 5.94546856861286 0 0 0
7 1 -0.28800473885821465 6.384258442154043 5.414579936966736 0 0 0
8 2 -0.3139670541725764 6.045366404145387 6.352052280041188 0 0 0
10 1 2.1896978621856116 6.552888396950043 4.662738397207804 0 0 0
11 2 1.1924300243016617 6.711002069592801 4.831582877381961 0 0 0
12 2 2.69362676225487 7.308317258320591 5.092361817504228 0 0 0
18 2 5.642260990379772 5.0493869674525085 1.2182023876645296 0 0 0
25 1 4.578985312055066 6.123867262879028 7.429130924653052 0 0 0
26 2 5.239413451221044 6.814494287899613 7.620131929855515 0 0 0
27 2 3.6617981100818837 6.298314355215203 7.755869184149065 0 0 0
28 1 5.905349742677588 6.183221277514101 2.4465100748450506 0 0 0
29 2 5.567622500947468 6.0064911849385485 3.3980223006877854 0 0 0
30 2 5.328372961022206 6.9547400401022506 2.1883018051972773 0 0 0
31 1 0.9826454202517899 1.1344519865432874 2.9623610511284753 0 0 0
33 2 1.1533486238946624 1.6438129070861398 3.829412027193332 0 0 0
34 1 0.7764206063502069 1.5116438581628429 7.499492132312334 0 0 0
36 2 1.005102249922723 2.13471789615087 8.30561466660611 0 0 0
37 1 6.087541573348126 2.606680876189834 2.5943229787644846 0 0 0
38 2 5.145786528843968 2.830950004539378 2.854273582769889 0 0 0
39 2 6.64446990268375 3.23103484985178 3.1323507928723244 0 0 0
40 1 4.142367210985579 2.398940732149353 7.5538039453533035 0 0 0
41 2 5.105710477317008 2.533540590412819 7.349721665985193 0 0 0
42 2 3.6926982411448948 3.22763022383159 7.335022083870641 0 0 0
43 1 -0.23854105825718588 4.822813029835409 7.6862357677653375 0 0 0
44 2 -0.8856575921807819 4.2222961896377385 7.337696230691854 0 0 0
45 2 -0.6178714324457587 4.986912373908007 8.577592096886416 0 0 0
46 1 1.775736870982781 4.52075925191732 2.9612661121377375 0 0 0
47 2 0.7967905173167652 4.469071332622089 3.0519799777539545 0 0 0
48 2 2.0156115941724377 5.263149856277387 3.5638984992077414 0 0 0
49 1 6.518181696231968 3.261101956790866 6.5716866397423255 0 0 0
50 2 6.146049781046433 4.029658993011193 6.022537624192662 0 0 0
51 2 7.062698887518116 2.8153019645819315 5.907490593727901 0 0 0
52 1 3.837829153692869 3.2743257419605625 3.7442846064917474 0 0 0
53 2 3.0071614734694383 3.4893893626119072 3.309299878131648 0 0 0
54 2 3.6974316453894835 2.3652681253906804 4.1258530484605895 0 0 0
57 2 -0.36455841418721513 3.2893512693546656 4.1798601137062805 0 0 0
58 1 2.2318048251442137 4.426890222993583 6.6053665508200226 0 0 0
59 2 2.2700056964169115 5.244698391517301 6.028750119454804 0 0 0
60 2 1.4869155693349199 4.513303456207942 7.251221669795943 0 0 0
61 1 8.582978337634009 6.812086155643321 1.7136333501455354 0 0 0
62 2 7.766631690131166 6.719504437524834 2.2193190820687723 0 0 0
64 1 2.4318507558691174 7.023536085282091 8.580628940045864 0 0 0
65 2 1.5568228495464658 7.435637857158499 8.203150834726147 0 0 0
72 2 3.827799196530573 1.4226541442568013 1.268004881472155 0 0 0
73 1 5.211711512216018 5.101492562361726 5.096947054048262 0 0 0
74 2 4.789017948216876 5.71702877736687 5.713090187842915 0 0 0
75 2 4.4837905948326275 4.616354168627183 4.725363884623627 0 0 0
76 1 0.9603524239379351 2.5804658217773477 5.156082321586873 0 0 0
77 2 0.9186171343019165 2.1722118098053955 6.03037713148423 0 0 0
78 2 1.426945643335809 3.4528539939007055 5.399968866273736 0 0 0
91 1 8.5658545658161 6.3365375644897695 5.1024703408271534 0 0 0
92 2 8.370516909366001 5.54012520451975 4.561358592638573 0 0 0
93 2 9.484594296195642 6.588910242275414 4.8983987176042305 0 0 0
115 1 10.299028443284477 1.3410667972147052 2.4890666319668275 0 0 0
116 2 10.314502752943703 2.099441707204585 1.7444078572118038 0 0 0
118 1 9.342378130619629 0.9554734884461342 7.263872500724964 0 0 0
127 1 8.946727098287823 4.796196358834052 7.300631266738365 0 0 0
128 2 8.127186420497438 4.32850881544957 7.284641366949142 0 0 0
129 2 8.765833022053771 5.5468568522431765 6.673241452514607 0 0 0
130 1 10.888747778868701 4.798954016314667 2.346770935478523 0 0 0
139 1 8.345912733922138 3.996721610016466 3.8097231065133537 0 0 0
140 2 8.868386773597935 4.291345215467637 3.0319228483609364 0 0 0
141 2 8.930644158400378 3.3260745268217984 4.23436991852465 0 0 0
153 2 6.687235469948125 0.9326095677597305 8.712031893885108 0 0 0
160 1 10.071411228177945 2.3834229467207386 5.050306582596378 0 0 0
162 2 10.391388183326958 2.074351593456698 4.202182014671724 0 0 0
169 1 6.9060164366738475 8.393831534782828 4.633730399669645 0 0 0
170 2 7.4731592677990415 7.6573807630060795 4.865284587475608 0 0 0
171 2 7.105930375249368 9.167510834703553 5.11639863703103 0 0 0
172 1 4.246216065415841 8.324297545932112 5.10284617209722 0 0 0
173 2 4.170885931913916 9.180335670916046 4.627139041382351 0 0 0
174 2 5.2489013587952345 8.248209214611398 5.23405312529424 0 0 0
199 1 1.774180518555763 8.813741848123406 2.846586637132625 0 0 0
200 2 1.6177285250187825 9.500950232754182 2.1387738428563754 0 0 0
201 2 0.9760554192381465 8.258341240575067 2.710137822616114 0 0 0
202 1 0.3379061462810494 8.544500538646027 7.610415917365506 0 0 0
203 2 -0.6014009956228663 8.373937872049497 7.766602096277683 0 0 0
204 2 0.4814427085671692 8.768115360269826 6.670696343802124 0 0 0
205 1 6.47888429985201 9.941736762192434 2.278685567238921 0 0 0
206 2 6.725634797458957 9.276414345480303 2.9415687771181958 0 0 0
207 2 6.575903212839633 9.535980515191623 1.4114177655723923 0 0 0
208 1 4.154195416602557 10.025838534730914 7.335536632439739 0 0 0
210 2 4.085484978093983 9.235051738260532 6.769104083498472 0 0 0
238 1 4.206335709962462 8.109004548820153 1.7552193632822202 0 0 0
239 2 3.6440992283411635 8.411864974164214 2.4876523585918133 0 0 0
240 2 4.462065578974175 8.899828234132325 1.1965427757585263 0 0 0
244 1 0.9232765572746529 10.104648680842292 5.4915944854607 0 0 0
245 2 1.3501234444911558 9.857087890524541 4.603116631214825 0 0 0
283 1 10.570044963767344 8.783364470152934 2.2215432668896486 0 0 0
284 2 10.420966072614162 9.112213660714998 3.171619448784481 0 0 0
285 2 10.038254321879968 7.974368253989764 2.1256854824714297 0 0 0
288 2 8.176999386976085 8.58117304949419 7.466633779604581 0 0 0
319 1 6.477604451353888 8.104825060719026 8.068585714443055 0 0 0
329 2 9.68048793308369 9.189151561802653 5.361257573448311 0 0 0
330 2 9.525957940937667 10.53927999687015 4.466918341956454 0 0 0
66 2 2.7998101766360155 7.639510073061289 9.265226139864671 0 0 0
21 2 0.8819170264711832 2.167830078236819 1.2996504770160764 0 0 0
132 2 11.072245026283003 5.48473914819997 3.010458933272296 0 0 0
286 1 9.042250362517992 8.984796974968654 7.393636882633193 0 0 0
328 1 10.089594826777555 9.726320729341493 4.679559315521862 0 0 0
94 1 11.198137625369089 6.551813421451459 4.44891943214119 0 0 0
119 2 9.396654907131207 1.6547966228414601 7.996125630624381 0 0 0
131 2 11.664829060480189 4.2339687447252965 2.4404434764084533 0 0 0
161 2 10.762911991740618 2.871737835657677 5.546135352806881 0 0 0
287 2 9.635263655557823 8.292200245382514 7.6940590622017915 0 0 0
96 2 11.251391703345572 5.922733065157533 5.229300120059237 0 0 0
5 2 4.7724578803905775 0.8475155207213212 5.069233852178445 0 0 0
324 2 12.79184994047175 7.198319824741823 0.803503859020294 0 0 0
323 2 12.312144758497654 8.395080416802644 1.7215287086531441 0 0 0
144 2 10.532509811605433 4.566561581483874 6.621532845990525 0 0 0
142 1 11.29099814350328 4.445356042111462 6.065230115445161 0 0 0
95 2 11.83398174379154 7.299357738092282 4.66338462894277 0 0 0
322 1 13.123290583625364 8.056539712885204 1.2412599065753582 0 0 0
320 2 6.234633952680165 8.93013618088108 8.560099302870682 0 0 0
321 2 6.861363465920323 7.457381141473508 8.692474117166702 0 0 0
276 2 9.446244579102247 9.882311036950918 8.8661691572378 0 0 0
192 2 0.9059429785059949 9.811705294081968 8.792490493706255 0 0 0
32 2 1.7755500373079518 0.6322372833503489 2.725339481145546 0 0 0
120 2 9.616129744988639 1.4156539486378144 6.4283732867597845 0 0 0
155 2 12.906523115788664 1.573691266510987 1.0829233783814616 0 0 0
63 2 8.61493040486761 6.0597361355652675 1.0734796922255805 0 0 0
246 2 1.543154564515594 10.714840251385512 5.894220994942708 0 0 0
14 2 5.028056552362238 5.027669640987118 8.838889974938319 0 0 0
80 2 6.4127803887313055 2.0921115162403576 1.0795571348030026 0 0 0
35 2 -0.1164294240893671 1.1778925511552862 7.615824797760592 0 0 0
83 2 2.2859200589525575 5.483114714958676 1.443979349246985 0 0 0
585 2 4.161757639572704 1.6386610997282565 8.933940009410788 0 0 0
55 1 -0.6361729695700662 4.148481934055015 3.688317114010179 0 0 0
753 2 3.8867790586984086 9.501634990426432 9.173998560777411 0 0 0
148 1 11.102381203145368 7.173831242137671 8.272516349176875 0 0 0
149 2 10.991982812869137 6.213150006136214 8.580551501728118 0 0 0
136 1 13.033209613756359 3.329827298350282 3.71810214730451 0 0 0
143 2 11.960582756227463 3.8651055482391636 6.522307951357151 0 0 0
89 2 12.868508111462177 1.9593684929878634 4.652263103844259 0 0 0
258 2 12.791517891892344 9.313470883080834 4.673193947179924 0 0 0
88 1 12.822793249592536 1.1348816368650998 5.276780690691289 0 0 0
137 2 13.31308394204539 4.088147979042578 4.305874278323804 0 0 0
150 2 11.558138814345885 7.706123205888623 8.948967708647016 0 0 0
256 1 12.831626948940503 8.533359745365145 5.296618986588012 0 0 0
113 2 14.586026896924743 7.05217890672963 2.3918291507924385 0 0 0
138 2 13.808005902615033 3.2834244817527742 3.1609060477322672 0 0 0
101 2 14.677048272545418 5.2125525668466395 0.9926732745933905 0 0 0
670 1 8.072376638624052 6.247962892608515 9.663017755765882 0 0 0
306 2 13.994029260314711 10.73462916824561 3.2925361180344694 0 0 0
152 2 7.6965536524046625 0.35719313931507723 7.689698853312971 0 0 0
126 2 12.965354271953716 1.9122712544700549 6.823140126297216 0 0 0
108 2 8.561100591113597 2.902295969124151 9.682187562373745 0 0 0
156 2 12.00873324806403 0.7801084064922311 1.9932700334226046 0 0 0
257 2 13.760344816037962 8.323158409324277 5.21407521613936 0 0 0
294 2 13.297262150666688 9.29455583190536 6.744890863722135 0 0 0
292 1 13.514819922082914 10.00519830591069 7.410364815345445 0 0 0
111 2 12.971329443883008 7.007938904473426 7.433868132209444 0 0 0
112 1 15.050249963934558 6.19961263427769 2.5979716612910733 0 0 0
219 2 5.933923766452232 10.615577481663271 6.539277166372539 0 0 0
671 2 8.468763295163857 5.707353942086782 8.997948510297428 0 0 0
289 1 15.711732678539502 9.890447769669512 2.531853379858461 0 0 0
291 2 15.926739225318611 9.505435311310737 1.647690218777211 0 0 0
668 2 12.762163396902997 2.054479059375024 9.053951006532106 0 0 0
158 2 14.632077477525652 6.034055624515789 4.339381168080609 0 0 0
159 2 14.16397458395813 5.826435162748829 5.931595449472966 0 0 0
90 2 13.736653682778174 0.8381384896245141 5.235116628837527 0 0 0
124 1 13.195433680623738 2.6820052638874237 7.4280138680296695 0 0 0
157 1 14.353490822665618 5.386579057138315 5.0373336861287035 0 0 0
272 2 10.275469145722251 9.822364142004826 0.94736247421284 0 0 0
9 2 -0.981836621018559 7.066101860537648 5.255739587692773 0 0 0
125 2 14.195130031102803 2.813239536842516 7.3688582353701815 0 0 0
70 1 3.61288506460387 0.6953534939329944 1.8711516997847306 0 0 0
220 1 4.178112770674238 10.806919245528844 3.6149220483808566 0 0 0
235 1 -2.1199711983160943 8.019416877506687 8.253116999307458 0 0 0
584 2 3.5054841164983492 0.20073549908193833 9.220936657138651 0 0 0
2 2 7.053743476458659 0.07095437247229304 4.825542275688826 0 0 0
117 2 9.551551350206086 0.7537373910196637 2.1976357049868716 0 0 0
109 1 13.846862823077748 6.588560130575527 7.366050758951079 0 0 0
217 1 6.811086385136282 10.748655720142128 6.140394690091856 0 0 0
114 2 16.00995251032827 6.3591828207498295 2.3855428863992425 0 0 0
248 2 7.955766148934052 8.196365444475406 0.6875596949976907 0 0 0
236 2 -2.4945399629596587 8.745557103144913 8.745624960137391 0 0 0
221 2 4.959727664450438 10.568267978580492 3.0910720699460863 0 0 0
84 2 3.1178346320809367 6.762375044314951 1.0005841294251465 0 0 0
121 1 15.423952004453335 2.852739478471291 2.595092677529289 0 0 0
583 1 3.948394023624036 0.9797460640913839 9.608515815998048 0 0 0
606 2 10.776409415701158 4.171182304291667 9.512352322212115 0 0 0
123 2 15.69179622727832 2.5445285855144 1.721565222097672 0 0 0
780 2 13.46743676121311 9.510315126570008 0.39059597295188253 0 0 0
309 2 7.739346030926211 11.179168988178882 2.8730109764323393 0 0 0
254 2 15.883148197593872 9.031532452714929 5.577317672684104 0 0 0
151 1 6.8642689441272555 0.16774875159799887 8.10132468658237 0 0 0
167 2 11.353398679319428 5.6135959091993435 0.9093140818197977 0 0 0
224 2 0.07051977756173838 11.231921831386202 4.192450340948413 0 0 0
79 1 6.815502121234307 1.720313286660862 0.2785137697408978 0 0 1
82 1 2.7076586509632397 5.952145015560908 0.6994530968494694 0 0 1
163 1 16.14604521002826 1.1583610443652606 0.34947957165201854 0 0 0
69 2 15.215698476404384 0.2088870507707886 7.631346642351001 0 0 0
68 2 -2.3269170273477093 1.437662254641076 8.42316963558134 0 0 0
56 2 -0.8310617722966385 4.851124966430167 4.331767922842917 0 0 0
311 2 11.054784503127808 11.008500870896487 5.762047510277909 0 0 0
67 1 -2.0042009977356496 0.6182629339881391 8.069657153234374 0 0 0
154 1 12.838430211401901 0.7302510137952469 1.5158315337761297 0 0 0
836 2 13.08197579399185 9.35259207195575 8.82523868237566 0 0 0
147 2 17.250426436863062 7.574406800591514 1.2089284641287608 0 0 0
304 1 13.064161755776173 10.765043353059525 3.6473835438925235 0 0 0
293 2 13.003685989410231 10.736980802626519 7.039430020387849 0 0 0
103 1 10.108569334640947 2.813972168442517 0.3863906791361198 0 0 0
99 2 13.162149916157706 4.823056126855783 9.486406721319936 0 0 0
301 1 16.028712317126022 10.860346474401233 6.274944620800244 0 0 0
122 2 16.07888125484042 3.4957143564766624 2.9758832859297826 0 0 0
399 2 8.016512045366834 0.47487662326191177 1.0364271299331278 0 0 0
106 1 9.458694479591374 2.597037411789772 9.418732978343803 0 0 0
485 2 10.642237905607592 0.07696493102256163 7.847941748396823 0 0 0
587 2 -1.5212262618030508 6.779097355460443 9.509061171241646 0 0 0
604 1 11.353735700650017 4.940395082023681 9.610918260526077 0 0 0
16 1 5.649746011010546 4.692892037400594 0.29223520989002605 0 0 0
290 2 16.07693507311597 10.771064517481973 2.524323884557123 0 0 0
110 2 13.802288071540922 6.18855917285394 8.265840908118747 0 0 0
486 2 11.699823038264398 0.17801884346493008 8.92362625556495 0 0 0
145 1 17.679755251709302 6.968230910538747 1.8345054538497794 0 0 0
237 2 15.134426875999285 7.577976190172715 7.761431025793311 0 0 0
521 2 2.0253980689816156 5.601831534660158 9.61259013349598 0 0 0
209 2 3.5622409872822707 10.73954818428308 6.971771506328956 0 0 0
19 1 1.0380831576898626 2.5716279892311413 0.3902047341846439 0 0 0
190 1 0.8915545190380598 10.254847269509078 9.678997626827575 0 0 0
135 2 15.855893609798734 2.7042742079447324 6.028460951683429 0 0 0
302 2 15.449570172444849 10.714528187006602 7.04503024091632 0 0 0
401 2 1.8979107827226076 0.01575293751329163 7.884355463333881 0 0 0
222 2 3.4945887830498257 11.0985426116746 3.011603776102082 0 0 0
85 1 15.703645625669251 1.5197807688349463 4.973307607152982 0 0 0
253 1 15.776231570997098 8.306002253182028 5.007743114587587 0 0 0
165 2 16.381591846879036 0.38719272300895047 0.95533418423372 0 0 0
133 1 15.608209208866688 3.483486369066797 6.6379222902529404 0 0 0
134 2 15.434147184775458 4.158608585878516 5.940132087277686 0 0 0
87 2 15.556524723152572 1.8530171494932675 4.026977205169756 0 0 0
146 2 17.929283123165693 6.258765199635631 1.2495052879450634 0 0 0
255 2 15.830465672847685 8.578007450816013 4.077800600023009 0 0 0
86 2 16.285696893789076 0.763057128998114 4.962080212939289 0 0 0
20 2 0.4714833125470148 3.352887830912959 0.2866962897371534 0 0 0
528 2 2.8105442613619456 3.059831280849321 0.4715059577514128 0 0 0
97 1 14.082707547015 4.937187552260442 9.745104672723443 0 0 0
835 1 12.886431624288164 8.788402507403903 9.628831417489517 0 0 0
483 2 -0.27523348441592144 0.1052702361431672 2.602554579853991 1 1 0
331 1 16.43476710047074 8.665864317871684 0.26455963925886833 0 0 0
104 2 9.520625970154898 3.528926228547741 0.24652324772088116 0 0 1
332 2 10.14938061719889 9.15093208489388 18.49834898894853 0 0 0
518 2 0.8632551434718665 4.590030133315978 18.896472405469737 0 0 -1
520 1 2.236259744618512 4.864198168814833 10.201943778708706 0 0 0
164 2 8.753200239202636 0.838469617288528 18.830603927479668 0 0 0
740 2 -5.091041627706236 6.974473297032978 18.720785657277638 0 0 0
105 2 3.2291782968861154 1.9689744372966909 18.92280647038734 0 0 0
573 2 11.569751864203488 0.173028047815134 17.23666900515577 0 0 0
669 2 12.211049773574677 2.2396161465936553 10.517045033729485 0 0 0
571 1 -5.588252965444126 0.5158408655441419 17.60775434094282 0 0 0
654 2 8.024367523190952 6.163330771607746 18.012570369791106 0 0 0
656 2 2.6243639982461486 -0.02645296693594387 17.17934514043809 0 1 0
539 2 -3.9028243284541286 0.7866135121319779 16.856439585448037 0 0 0
586 1 -0.8764073508483659 6.272689010136809 9.973146646078726 0 0 0
590 2 11.336876209632427 1.147475618439635 14.377149039814697 0 0 0
98 2 14.037608708282765 5.597068851446338 10.422937340664646 0 0 0
536 2 -2.575392369254428 0.34662208596298505 11.715029708331702 0 0 0
658 1 9.510405288181703 0.34432352639098784 11.376319995516878 0 0 0
333 2 9.102061062519585 8.192379684005 18.856558102628178 0 0 0
505 1 3.1513095403474582 0.8092881251360818 14.181296048084045 0 0 0
506 2 3.4953613654211315 1.5465484315317384 14.694805978288896 0 0 0
517 1 1.806444269178058 4.774756022528523 18.926001849195227 0 0 0
508 1 0.5406845721438045 1.058653108392686 14.564923763397468 0 0 0
714 2 2.0364423073575444 10.312091217349685 16.70368911289677 0 0 0
510 2 1.4970435585286352 0.8182361034994944 14.387209642107209 0 0 0
511 1 -4.0316869980452505 6.563635455050591 14.690666698974502 0 0 0
512 2 -4.391216252731358 5.889312386633997 14.078369267135997 0 0 0
513 2 -3.9291748718419255 6.138745587636476 15.558757768548038 0 0 0
514 1 -1.2847786051171497 6.63579229898745 14.293756062607597 0 0 0
515 2 -1.127853173542314 5.873742087173998 14.90689204635054 0 0 0
516 2 -2.2001806970011417 6.8141106587426465 14.486435978471953 0 0 0
608 2 5.975421093174008 3.045247989349224 9.924226335839746 0 0 0
519 2 1.9418685809040854 5.314037090650908 18.073531454179964 0 0 0
828 2 8.651548979292114 7.7533596228968475 11.746696447501629 0 0 0
522 2 2.3606029091251366 5.252455791436069 11.10285544419214 0 0 0
794 2 12.782944190317114 10.795493823954649 12.007728539533744 0 0 0
805 1 12.556709285935108 10.882111060560577 15.862039984870421 0 0 0
249 2 1.0623979088546982 9.17665178858224 18.406525613672898 0 0 0
798 2 10.24716500629786 9.308334911443085 16.325504723369455 0 0 0
779 2 6.834150219446429 10.150311043336133 18.13040650455067 0 0 0
529 1 1.707331802849495 6.3610960478933265 16.735951967622515 0 0 0
530 2 1.6205656146420482 5.799804848505967 15.909738604791812 0 0 0
531 2 0.7625799543096323 6.48352822973179 16.977153661592645 0 0 0
532 1 2.6562159961636578 6.249091538578232 12.485870520003067 0 0 0
533 2 3.6163247427960608 6.361664694374688 12.314202668429532 0 0 0
534 2 2.4630578586794964 5.716342870844366 13.281876198559878 0 0 0
535 1 -1.9493171730968863 1.0162270008008112 12.183077606676697 0 0 0
166 1 5.103595107630561 5.852941791510999 19.044454017221984 0 0 0
602 2 10.00968663499443 4.771983446689971 19.174507924530076 0 0 -1
538 1 -2.984120868784588 1.0872124999716715 16.9169020957645 0 0 0
721 1 3.7216419716982077 10.783739021750945 16.215070063098675 0 0 0
540 2 -2.8068664017567526 1.5152593750990346 16.07880374543973 0 0 0
541 1 3.0336947150612334 2.520864719904395 11.65441299862301 0 0 0
542 2 2.9163120428399885 1.7835240674309016 12.304132887963315 0 0 0
543 2 3.1240918711699854 2.0477724063738623 10.76206993964135 0 0 0
544 1 0.7824229961010852 2.8073480769691614 16.760460303822565 0 0 0
545 2 0.39510277810875366 2.6233211098874487 17.64771025060216 0 0 0
546 2 0.6136694979203591 1.9962065697106044 16.195286821670177 0 0 0
547 1 -3.6532540669497138 5.085213339516417 16.9895567027123 0 0 0
548 2 -4.211806588359518 4.252295247379895 16.795218287539544 0 0 0
549 2 -3.5682443136645583 5.162398453555837 17.948149066260225 0 0 0
550 1 -1.4422921859039108 5.021041528517162 12.17206629580429 0 0 0
551 2 -0.603504087312279 4.527154626031469 12.172434204626347 0 0 0
552 2 -1.3710789723486256 5.7331997161300965 12.86054552498905 0 0 0
553 1 3.439151764568789 2.977605013014681 15.93264643254131 0 0 0
554 2 2.590262710885121 2.887394729757447 16.406768671940586 0 0 0
555 2 4.123923683236328 3.478924280732272 16.491222855100887 0 0 0
556 1 0.7001410049698614 3.304603887031864 12.937120114310375 0 0 0
557 2 1.4803838570593904 3.1891700973727626 12.280188574933868 0 0 0
558 2 0.47659160259518796 2.4127819007437723 13.307411921293404 0 0 0
559 1 -4.058870878359121 4.552951328901655 12.926915698199082 0 0 0
560 2 -3.319935909053975 4.949693690848737 12.423849203711315 0 0 0
561 2 -3.624941456041148 3.7107097719433217 13.246883467098831 0 0 0
562 1 -1.068265090149109 4.332728523270557 15.651435057575036 0 0 0
563 2 -0.35978652796477395 3.8711068780971707 16.156314495276458 0 0 0
564 2 -1.7867709462341514 4.403101792606353 16.282717948578796 0 0 0
565 1 4.926547162013942 6.925352635967503 11.223241718284987 0 0 0
724 1 0.7625825540518332 10.816207428535774 13.079524462010333 0 0 0
749 2 -1.935333300940358 10.377970055113572 15.050428434373224 0 0 0
568 1 -0.9676646722506688 6.954362525860774 17.777708099099772 0 0 0
603 2 11.00729435681573 5.066651806169276 18.17610070504509 0 0 0
570 2 -0.5737800813333029 7.61475257793256 18.382628929594897 0 0 0
691 1 -2.1972488627045124 10.428807721726526 10.070525246050252 0 0 0
572 2 -5.763510477850792 1.220339720383804 18.271753114720855 0 0 0
827 2 10.199935778867296 7.557816657008919 11.722354024894603 0 0 0
507 2 3.611028586085777 0.013583472181494808 14.50496338362482 0 0 0
576 2 0.6160554242379638 1.2897591940473596 10.886662314419581 0 0 0
577 1 2.0090919471349844 4.865898764803404 14.398695312170924 0 0 0
578 2 1.338117033171028 4.314877472036185 13.935959636686842 0 0 0
579 2 2.7221912518371387 4.2968714942681885 14.707541805643038 0 0 0
580 1 -2.721666703173822 2.3978774151285114 14.39632304094835 0 0 0
581 2 -2.3463276386653917 1.8176240311299108 13.712463976948062 0 0 0
582 2 -2.0245723383283956 2.966748464055643 14.70750438467405 0 0 0
696 2 -1.8155042234838836 11.065926665055457 19.092769022948513 0 0 0
537 2 -1.0303968437672155 0.6217276011564363 12.017205368669753 0 0 0
589 1 12.253033970631561 1.143161617405001 14.002623438430387 0 0 0
569 2 -1.0345765985615907 6.175321694175941 18.335572805251985 0 0 0
591 2 12.724725923246552 1.6903764326167687 14.654164773934617 0 0 0
592 1 9.669080196595045 0.9781013422781344 14.97370945395122 0 0 0
826 1 9.409083744124812 7.74022814130196 11.140888375616253 0 0 0
594 2 9.443045271765278 1.644762524344447 14.266357380006665 0 0 0
595 1 5.10678100576007 6.260818648993215 14.624604599487823 0 0 0
596 2 5.241589826280429 5.788980748803893 15.486994780875348 0 0 0
597 2 4.906204287679911 5.514521036253937 13.96179657836734 0 0 0
598 1 7.953059547115819 6.239489248694149 14.446243857057553 0 0 0
599 2 6.9897878591808995 6.46766091733874 14.457523438200354 0 0 0
600 2 8.078659898622742 5.917551238988067 13.517570798842778 0 0 0
834 2 6.116269330658591 10.321222894164137 13.929476615064708 0 0 0
815 2 8.571621397970372 10.817460347199864 16.337576203723916 0 0 0
24 2 -0.30935282403682396 3.0014644636954224 9.88413015347306 0 0 0
605 2 11.281221483513088 5.225877179420669 10.556585648367777 0 0 0
832 1 6.687275763911841 9.629610586111964 14.376186318681869 0 0 0
743 2 0.21613224687911176 7.280778186068689 10.91321038217474 0 0 0
825 2 3.5585092980162956 8.567423147757696 18.217899757446627 0 0 0
574 1 0.6281568214975967 0.410264413225336 11.346227216691707 0 0 0
566 2 4.442735315201428 7.569027382890669 10.568800591104711 0 0 0
611 2 6.100839652405486 2.2247919194130192 17.880251278903437 0 0 0
613 1 10.745411811952449 6.073858507544249 16.709302840389903 0 0 0
614 2 11.496911571577407 6.608199971729387 17.095136926021006 0 0 0
615 2 9.892020236334744 6.454892951216127 17.002200450053817 0 0 0
616 1 11.563540561043903 6.537489564784634 12.128696193734141 0 0 0
617 2 11.4696414043375 5.978240676858681 12.9736409189162 0 0 0
618 2 12.492151735443489 6.672228138481699 11.952147306471435 0 0 0
619 1 7.182579397353777 0.7283746348570567 12.348679930998411 0 0 0
609 2 6.388634480008496 1.8174493693199851 10.809647707534273 0 0 0
621 2 8.142993635902958 0.4331831970570455 12.125036640543208 0 0 0
622 1 5.836828575944559 0.9440334140472193 16.800642537307525 0 0 0
711 2 2.283212162511679 10.544047166286303 12.469480806731818 0 0 0
624 2 6.121372416484575 1.360236995667887 15.894549535376765 0 0 0
625 1 11.988790913518747 2.8683779137337067 12.05277628588781 0 0 0
626 2 12.162695987154532 2.237982630354701 12.843930698016724 0 0 0
627 2 12.540054837642723 3.64298561310559 12.358702526154818 0 0 0
628 1 10.019131197418883 2.656344570524944 17.11337054497138 0 0 0
629 2 9.994193087401216 2.1283425979008053 17.983299644692178 0 0 0
630 2 9.789724517482234 2.0191929043502466 16.405550966532314 0 0 0
631 1 5.363552152071774 4.580138668050389 16.786422431189628 0 0 0
632 2 5.3364587490256925 5.057662416519457 17.68178259845208 0 0 0
633 2 6.256803107319656 4.275060766317342 16.525167914007856 0 0 0
634 1 7.65029650257524 4.706021645845237 12.014140092121414 0 0 0
635 2 6.699546827097054 4.47856314784332 12.103771725798865 0 0 0
636 2 7.724478777653292 5.197322661980427 11.16817756826878 0 0 0
637 1 12.775791303366256 3.1039993690432564 15.87300958522441 0 0 0
638 2 12.446023325443443 3.872520755983706 15.352332203805453 0 0 0
639 2 11.964127869912284 3.0166262447157868 16.42579626421751 0 0 0
640 1 9.504778964922988 3.1769175099041744 12.974375885447325 0 0 0
641 2 8.81130086705304 3.7147024763781795 12.410375811760765 0 0 0
642 2 10.318206823790415 3.011811373512427 12.471846125944335 0 0 0
643 1 5.158159108224757 3.756410617125675 12.937548408383266 0 0 0
644 2 4.425791965923264 3.3404189883240694 12.383151361987126 0 0 0
645 2 5.476353375681356 3.123326658676975 13.592757922154433 0 0 0
646 1 7.824588727289567 3.810782850561947 15.901658769166179 0 0 0
647 2 8.634002450387955 3.5011001264818824 16.48576612790533 0 0 0
648 2 8.134101674568189 4.619478661462866 15.344564400605964 0 0 0
649 1 14.458645574759284 7.08470946535468 11.215828134309007 0 0 0
650 2 14.183543720975557 7.6966324838118965 10.468580216792091 0 0 0
651 2 -2.942100090113204 7.632217661498227 11.757388595782322 0 0 0
652 1 8.424021870801345 6.987670715397237 17.768454517220267 0 0 0
653 2 7.765333986101813 7.495995825072852 17.261502541083935 0 0 0
526 1 -2.892698880724872 2.7850163574111613 19.222896250622306 0 0 0
168 2 4.445979923266666 6.48899369282594 18.641197390513014 0 0 0
906 2 -1.799825330141218 0.050726297134767444 17.512639860967724 0 0 0
661 1 11.123381830627679 5.005708363668139 14.291971905795293 0 0 0
662 2 10.942051792097212 5.394823206076762 15.230940066217594 0 0 0
663 2 10.430640398827164 4.283205485687549 14.099960984451906 0 0 0
664 1 6.710444393877178 1.9769305915842343 14.662140557111549 0 0 0
665 2 7.492652470743174 2.5257234387921548 14.929436925716928 0 0 0
666 2 6.982874430276284 1.4263377851045396 13.889119463041782 0 0 0
777 2 6.125239949652221 10.948896365217525 10.210416664542507 0 0 0
796 1 10.301626507085395 10.0041801160082 17.05750502827215 0 0 0
623 2 4.879837735986694 0.982355474654675 16.814170818416226 0 0 0
673 1 3.327741090533043 8.49352871031134 14.447829689299889 0 0 0
674 2 3.988652208769943 7.812379905979973 14.395583225149501 0 0 0
675 2 3.4839349339340653 8.927308757475087 15.262889774578438 0 0 0
676 1 0.6305913247349896 8.438842353977767 14.696601870937828 0 0 0
677 2 1.3790593401601576 7.883245993721027 14.681827067218657 0 0 0
678 2 -0.1900890291517965 7.934217710121676 14.70883419986154 0 0 0
525 2 -2.0538228729951453 2.17815657721035 10.900643594573713 0 0 0
672 2 8.861894862609315 6.6594012785556025 10.086045163780893 0 0 0
275 2 9.56667104025073 9.228530417139929 10.31555502529256 0 0 0
807 2 12.768720277062595 10.070120105312844 15.313448923771269 0 0 0
695 2 -2.3946048675240066 10.153810388666448 18.0560214141489 0 0 0
523 1 -2.0215890259232747 2.5751289985117394 9.983506343556941 0 0 0
703 1 -1.8446666137169485 8.794853158196918 12.334571386142853 0 0 0
704 2 -1.9716856384304635 9.346173490570632 11.524551709658313 0 0 0
705 2 -0.8986684473332949 8.46802936341691 12.322424529194683 0 0 0
706 1 -3.234960976525933 8.361741746276723 17.118506517034568 0 0 0
707 2 -2.9966487458749693 8.565719578473015 16.1913740296553 0 0 0
708 2 -2.4881917202432873 7.749445165667458 17.427633838289182 0 0 0
709 1 3.176553293667986 10.270057172899408 12.279314952916978 0 0 0
710 2 3.367051129178034 9.59254299669072 12.974829894869753 0 0 0
795 2 12.307778602271584 9.41248831933577 12.56986763747645 0 0 0
712 1 1.2442460645317626 9.839026427627909 16.971829125512166 0 0 0
713 2 1.0610075393632965 9.264754458087591 16.202813796266327 0 0 0
809 2 10.527671442091295 10.468659066449865 12.502440968442434 0 0 0
527 2 -2.991686960164492 2.303456998967342 18.343515909020525 0 0 0
797 2 11.226962391374789 10.355232075006558 16.81898255901694 0 0 0
728 2 -3.3592385420919086 10.990174821931692 13.61294292388682 0 0 0