LAMMPS data file via write_data, version 3 Mar 2020, timestep = 18900000

2016 atoms
2 atom types

0.0000000000000000e+00 1.7928876769066843e+01 xlo xhi
7.8930939775702313e-02 4.4917229037113906e+01 ylo yhi
0.0000000000000000e+00 1.9067574588757299e+01 zlo zhi
4.2566142372918461e-02 -6.6579976544218731e+00 -2.3410123638612390e-02 xy xz yz

Masses

1 16
2 2

Atoms # atomic

126 2 1.0946527541816934e+01 5.0711564019467685e+00 8.6316565775761889e-01 -2 0 2
1550 2 6.3822376570227606e+00 1.9434542824617440e+00 1.8789371466717551e+01 -1 0 0
696 2 1.1246721447787719e+01 8.7275768313698734e+00 8.4379501200148077e+00 -2 0 -1
700 1 9.7820338197388690e+00 1.6828857105313781e+00 1.4209148779286924e+00 -3 0 -2
122 2 2.3835329163511094e+00 5.6487900183319999e+00 3.1767688826577785e+00 -2 0 -1
559 1 2.9934209825623541e+00 6.9428731896301681e+00 5.9922010997808268e+00 -1 0 0
1087 1 2.0219439001411796e+00 7.5430531809008849e+00 1.4395524164979296e+01 0 0 0
373 1 4.5068779738371907e+00 5.3145734890415701e+00 1.5341752473550095e+01 1 0 1
689 2 1.0261426194471383e+01 4.2917504841526410e+00 7.5344774267072188e+00 -2 0 0
1554 2 7.7421168076694684e+00 7.7956980766276525e+00 1.1071727529323296e+01 0 0 1
690 2 1.0528668339543259e+01 3.7747928013462437e+00 5.9973436425995779e+00 -2 0 0
422 2 1.2970008681438824e+01 9.1690615773037187e+00 1.1998644804426331e+01 -1 0 0
627 2 6.2409307917110635e-01 2.3433442892501417e+00 7.7243379267492482e+00 0 0 0
118 1 1.3130921732693270e+01 1.0935390772433902e+01 1.2938253332089758e+01 -3 0 -3
450 2 7.3551565426663581e+00 7.2494246131788769e+00 8.6947097583246808e+00 0 0 0
960 2 2.3366335569736307e-01 4.3647239872814527e+00 1.8851200581971209e+01 0 0 -2
441 2 -5.0130555114392017e-01 5.9865378723671343e+00 1.4827284951026792e+01 -2 0 -1
104 2 2.5317609294115861e+00 7.4641438193023610e+00 1.0752227524955350e+01 -1 0 2
625 1 8.7442020168674617e-01 1.7805936469313783e+00 8.4600305935538991e+00 0 0 0
702 2 1.0059319740813207e+01 2.3706470190317610e+00 2.0583158904646170e+00 -3 0 -2
146 2 1.7439419096376060e+01 4.6400882853063470e+00 1.2365716426828584e+00 -1 0 0
117 2 2.3274278534202342e+00 6.0229036726903731e+00 1.7018507116098348e+01 -4 0 -4
1598 2 1.0897510083571554e+01 6.3883010311900481e+00 9.8641648125946357e+00 0 0 1
32 2 -2.4188632787179989e+00 7.2812315463863850e+00 8.3568372668625361e+00 -4 0 -4
150 2 -2.4282823201126260e+00 2.8867548531088301e+00 1.6499441333640863e+01 -3 0 -2
50 2 6.6368998203455201e+00 9.9785587458847207e+00 1.7480080405947511e+01 -1 0 -1
398 2 1.0584219750428263e+01 1.0243053374265541e+01 9.8061269764658938e+00 1 0 0
1911 2 1.3005524929577591e+01 9.9449555436527195e+00 4.2892861224470602e+00 -3 0 -1
35 2 1.0918071246635991e+01 4.2572037714298860e-01 1.7804637707716977e+00 -2 0 0
1599 2 1.0250409473387970e+01 7.2598600053246223e+00 1.1025187259130476e+01 0 0 1
530 2 1.2342382760067538e+01 9.9422932329593694e-01 1.5057483316041223e+01 -1 0 0
217 1 -8.8484128409155804e-01 5.5440930382465998e+00 1.7927033401295336e+01 1 0 0
133 1 4.3491621251040602e+00 1.9334985085324947e+00 3.6488919708742817e+00 1 0 -1
760 1 5.8100482269786085e+00 5.7504875930697095e+00 3.3314441243384008e+00 -2 0 2
309 2 -4.2501756213103032e+00 7.2294163773228552e+00 1.2630813536033502e+01 1 0 2
374 2 4.6613127467602631e+00 5.8536126008281686e+00 1.6168896193365665e+01 1 0 1
386 2 1.3311144549351170e+01 2.2528480033571716e+00 8.4927870037903226e+00 1 0 -2
173 2 7.5507846469530771e+00 8.3226148930741193e+00 1.5055709351337356e+01 -1 0 -3
361 1 1.6130989207093986e+01 1.1031954631959609e+01 3.4844260780555225e+00 -2 0 -1
200 2 1.2925444534494478e+01 7.1215958474567138e+00 6.0712252629918249e+00 -2 0 -5
603 2 1.5804314112845557e+00 1.9509393589718791e+00 1.3226246710396252e+01 -3 0 -3
432 2 3.8640749188536345e+00 2.3240806518142927e+00 1.7235444386162520e+01 1 0 3
1172 2 1.2949159798054980e+01 2.3093757086543887e+00 4.3965683946103464e+00 1 0 1
1059 2 5.4387837965935502e+00 6.6784631765680604e+00 2.3704284514198495e-01 1 0 -1
914 2 4.1318056225811963e+00 2.7095499806787635e+00 9.2777720140280309e+00 1 0 2
524 2 1.3194079895328509e+01 9.6155983851450042e+00 8.7181905098706522e+00 -3 0 -4
500 2 -9.6927813711850608e-01 7.5340709993382493e+00 3.0213155763308746e+00 2 0 0
969 2 -1.9530976831665052e+00 2.4177915453048358e+00 1.3311604434166597e+01 -1 0 1
841 1 1.4310563992863814e+01 7.9221662874522245e+00 5.3154745793945253e+00 -5 0 -4
286 1 -2.1476175407994478e+00 2.8613157980458919e+00 8.2698078744952799e+00 1 0 -2
96 2 1.0925626701006642e+01 7.8981663070971608e+00 5.7157213041766024e+00 -2 0 -2
300 2 1.2388955661875700e+01 8.7697137014792101e+00 1.5131320728920180e+01 -3 0 -1
1171 1 1.3165119361184203e+01 1.7898420422621875e+00 3.5497599597253546e+00 1 0 0
477 2 8.5587614463735182e+00 4.8846599977113465e+00 6.0654578676060034e+00 -1 0 4
24 2 -2.3003719139348462e+00 4.9971006626473189e+00 1.0371728585599712e+01 -2 0 0
508 1 5.3637976819298601e+00 6.6318293013000513e+00 1.3215456303305331e+01 -2 0 -1
978 2 3.1918840894055500e+00 9.0197733843016703e+00 8.2684885128350576e+00 -2 0 1
115 1 2.5014314238235373e+00 6.8013868946927998e+00 1.7597503077767396e+01 -4 0 -4
36 2 1.2138298311421345e+01 5.9929550404041931e-01 2.7560727386571440e+00 -2 0 0
513 2 4.6594378707498496e-02 7.9530143538779363e+00 8.2382672455099879e+00 1 0 0
440 2 6.6928790809230954e-01 6.9013043669887866e+00 1.5339203354753623e+01 -2 0 -2
989 2 8.8888636543195432e+00 9.1081427059382083e+00 1.7715241375520051e+01 -3 0 0
59 2 1.0917968856352775e+01 8.5109233279205760e+00 1.3786782089669009e+01 -1 0 2
1631 2 5.9777233943290415e+00 4.1905789660856936e+00 1.5812974138469887e+01 0 0 -1
271 1 2.7285344313495035e+00 7.4515544916719199e+00 1.6513627177098633e+00 1 0 -1
862 1 8.1343532726762113e+00 5.5590055384933681e+00 1.7783062287353609e+01 -5 0 -3
62 2 -3.0584152351687788e+00 1.0613091187918582e+00 1.4870606243441573e+01 -1 0 -2
70 1 1.4781156472971077e+01 4.6606878754318180e+00 6.6371379642849382e+00 0 0 2
49 1 6.9167473368844323e+00 9.2656815632403511e+00 1.8109153207892927e+01 -1 0 -1
889 1 -7.4227548457338921e-01 4.9773704272679238e+00 9.6150774033392121e+00 0 0 -1
668 2 1.3107682257958425e+01 3.8588508938646791e+00 1.0211286383606157e+00 -2 0 -2
209 2 1.0408888863153191e+01 1.6977335754354030e+00 4.7651319925801401e+00 3 0 0
128 2 5.5208594209223989e+00 8.8920102741046456e+00 1.0648587208998876e+01 -4 0 -2
573 2 1.5827659532127130e+00 9.8288286077590026e-01 1.2930773701804157e+00 3 0 5
708 2 7.2569450739313339e+00 9.2969932500913774e+00 2.5821811936520120e+00 -2 0 0
1088 2 2.8095005603998775e+00 7.8616328062860177e+00 1.4904723023277999e+01 0 0 -1
692 2 8.5138985863240997e+00 9.5780101121879131e+00 8.5220777940772887e+00 1 0 2
516 2 5.8269092194165140e+00 1.0791500392602966e+01 1.1778554806644184e+00 -1 0 -2
782 2 1.0823234975178799e+00 3.1833408865177693e+00 1.1458018896230067e+01 -2 0 -3
23 2 -3.2939444777936759e+00 5.4510366914286843e+00 1.1448951856697608e+01 -2 0 0
81 2 -4.9266383868712467e+00 2.3794477748313234e+00 1.6763043175110145e+01 -3 0 1
319 1 2.6539165733598633e+00 5.4928601323195201e+00 8.2390064351192169e+00 -3 0 -3
867 2 5.3595564056981395e+00 5.4995021925308016e+00 7.5434793106517919e+00 -5 0 -1
135 2 3.9025198154737200e+00 2.3496146127610960e+00 4.3987447819073067e+00 1 0 -1
229 1 7.2947496868874273e+00 9.8386588084598248e-01 2.4507383278868953e+00 0 0 -2
602 2 1.2215555932294819e-01 1.7840038478775191e+00 1.2767971178094632e+01 -3 0 -4
725 2 1.2285538144980517e+01 3.4205276901309118e+00 1.0037261890530898e+01 1 0 1
91 1 1.3840203982712573e+00 9.0779466307551964e+00 8.6451543778143822e+00 3 0 0
283 1 1.0468333470165956e+00 3.0795134121760008e+00 3.4943746760847909e+00 -3 0 2
506 2 5.3527283515357720e+00 6.5173356114833005e+00 9.3919206596585134e+00 -5 0 -2
1584 2 1.0796402147242699e+01 7.8907678915236321e+00 1.8165228962287607e+01 -1 0 -1
924 2 5.5054478927203663e+00 4.6496262543594948e+00 1.0913326900885520e+01 -3 0 -3
1551 2 6.1419194377573998e+00 8.5309035044669379e-01 1.7793703352340792e+01 -1 0 0
111 2 1.1369793278771958e+01 5.8399939942712296e+00 1.1980564793349307e+01 -1 0 -5
707 2 7.8657186226636098e+00 7.8725716602737839e+00 2.8644018030961673e+00 -2 0 0
606 2 2.3089307332156528e+00 5.7457577912307638e+00 1.2097917793455769e+01 0 0 2
766 1 1.2707764149884568e+01 3.1007897607968333e+00 5.8631412545458002e+00 -4 0 -1
781 1 1.3202070906547063e+00 3.4343576877809316e+00 1.0539982723046505e+01 -2 0 -3
22 1 -3.2207900667640721e+00 5.3041041229091475e+00 1.0475432896314210e+01 -2 0 0
864 2 7.6558858141006443e+00 4.8316033547355746e+00 1.7330832261713603e+01 -5 0 -3
811 1 3.6623397712389671e+00 3.2363631354136801e+00 1.3051209426409374e+01 -3 0 -2
185 2 -2.7482224833395992e+00 8.4752412536657165e+00 1.7450027376634928e+01 -4 0 -7
114 2 9.3943663652653253e-01 9.7306712665600159e+00 3.3750803599827195e-01 -1 0 0
92 2 1.3011939098772638e+00 9.6588524064624117e+00 7.8780177077557036e+00 3 0 0
1000 1 2.6304007590870260e-01 1.4554711271964098e+00 1.7917592683941209e+01 1 0 1
596 2 1.4221281129441834e+01 6.3458224512992478e+00 3.5184130778533473e-01 2 0 -2
923 2 5.8154119624516332e+00 5.8470230460247414e+00 1.1768100803751420e+01 -3 0 -3
29 2 -3.8924468095746558e+00 6.4407824816316763e+00 1.6576454055884536e+01 -4 0 -3
502 1 -1.9606674507899682e+00 1.0664957576851624e+01 8.1562424419087058e+00 0 0 -2
650 2 1.2462748982701218e+01 4.2695898092399842e+00 1.3231896287591319e+01 -5 0 0
499 1 -5.3971110317763149e-01 6.7605524778132491e+00 3.4828744046250217e+00 2 0 1
196 1 4.6765237892069207e+00 3.1718335083271616e+00 1.2365613390182784e+00 -2 0 -1
503 2 -2.3797325328173669e+00 1.0179571772781070e+01 8.8551826589817697e+00 0 0 -1
704 2 -4.4725449690919761e-01 9.2102885316245793e+00 5.6314310252044528e+00 0 0 0
930 2 4.4169368178909494e+00 7.8485878519759762e+00 1.2030832269955191e+01 1 0 1
550 1 1.1185690662545760e+01 4.7927763099667811e+00 1.6564601894657329e+01 0 0 1
355 1 8.9621231304599309e+00 5.7272588704087770e+00 1.3724899387944289e+00 -4 0 -3
951 2 -9.2558322176616059e-01 4.5324478000130854e+00 1.2812332376786280e+01 -1 0 1
754 1 7.5232116771055209e+00 3.5304884421836440e+00 3.5976008856470236e+00 1 0 3
291 2 7.3125598098142124e+00 2.6301003513757717e+00 7.6450630576678140e+00 -1 0 3
177 2 3.6512993620773577e+00 1.6741455669256804e+00 7.2366604251943381e+00 -5 0 1
902 2 1.3121381602515601e+01 1.0116876127614402e+01 2.7370602860979152e+00 -3 0 -1
958 1 7.2159623301666977e+00 3.6479303027469507e+00 3.5748827756571971e-01 0 0 -1
205 1 5.9874777270049950e-01 9.0801320490199515e+00 1.7908624636246781e+01 4 0 1
448 1 8.2717498316258524e+00 6.9950564777060960e+00 8.3844608807361531e+00 0 0 0
1170 2 2.0718138272092497e+00 5.1740435068602997e+00 6.4777613735166639e-01 0 0 1
397 1 1.0758621070651053e+01 1.0965810104073489e+01 1.0469678086556581e+01 1 0 0
715 1 1.1988363916301470e+00 3.9701968821486169e+00 6.8316654563869923e+00 1 0 2
531 2 -4.9082349686830229e+00 2.2552939589845837e+00 1.4531382174340091e+01 0 0 0
832 1 1.4633031841045886e+01 5.5498486764561843e+00 3.7102112155749647e+00 -3 0 2
761 2 4.8537988319702148e+00 5.4735939615316678e+00 3.3897068299345849e+00 -2 0 2
768 2 1.2670273010030098e+01 2.4530589292167120e+00 6.6050057392173933e+00 -4 0 -1
211 1 1.6276161460186486e+01 3.1214341865517552e+00 3.9188832658165804e+00 -4 0 -1
127 1 6.5026759667497958e+00 8.9521161333835106e+00 1.0695007091620067e+01 -4 0 -2
1632 2 6.6106422946976213e+00 2.9487098335562658e+00 1.6608511194385461e+01 0 0 -1
649 1 1.3247869698857851e+01 3.6743035719460257e+00 1.3159971929108531e+01 -5 0 0
5 2 1.0554701198480860e+01 2.2465206311714442e-01 1.7713990447399397e+01 0 0 0
195 2 6.6010659140950523e-01 9.9492115054058345e+00 1.3550208467861621e+01 -3 0 -2
505 1 5.4912406309626247e+00 6.9536587016925351e+00 8.5291955138291851e+00 -5 0 -2
1010 2 -7.4909558592036318e-01 6.1718555733022349e+00 5.1204427997753310e+00 1 0 0
476 2 7.1279537245804221e+00 5.1567398719106556e+00 6.5805294621566155e+00 -1 0 4
1078 1 -3.9798390137148569e+00 5.3019863152232807e+00 1.5232540173679388e+01 0 0 0
595 1 1.4204985572952918e+01 6.7419341009986873e+00 1.2659507994930759e+00 2 0 -2
605 2 2.2495019138786088e+00 6.2957303309695511e+00 1.3551954654826169e+01 0 0 2
176 2 2.7138654448013169e+00 1.1739733724171557e+00 8.3276435873534993e+00 -5 0 1
197 2 5.6418547789937712e+00 3.3928247824211266e+00 9.9360979025987761e-01 -2 0 -1
416 2 2.8432224210545254e+00 3.8471846783858639e+00 1.7014451275988613e+01 0 0 -3
834 2 1.4706821816539374e+01 6.4421978169584593e+00 4.1217478397302223e+00 -3 0 2
206 2 1.0333167187965033e+00 8.2251809210620124e+00 1.7564881642934367e+01 4 0 1
1058 2 6.1560896175217623e+00 7.7018333182623167e+00 1.2065084785357627e+00 1 0 -1
345 2 -2.9793260176784702e+00 8.1026875355615613e-01 1.7957587178898621e+01 -1 0 1
626 2 5.6947699641606375e-01 8.7302255631887260e-01 8.2387407201495026e+00 0 0 0
287 2 -1.6377935208973493e+00 2.4022014149452793e+00 7.5707373890048686e+00 1 0 -2
1169 2 -4.2104488022820723e+00 4.2519632379948433e+00 1.8511671425243026e+01 0 0 0
775 1 -1.0344986867739590e+00 1.5809783138724267e+00 6.0883122834017591e+00 -1 0 3
604 1 2.2722794730127296e+00 5.4549210735502012e+00 1.3010138667558307e+01 0 0 2
340 1 4.0376239200148945e+00 1.0378724663282841e+00 1.1543631540005196e+01 -3 0 -1
288 2 -1.3995707483641837e+00 3.4213780235348308e+00 8.5756513296031436e+00 1 0 -2
651 2 1.2948567335900414e+01 2.9760820930558389e+00 1.2583484831490786e+01 -6 0 0
241 1 1.6198739463395405e+01 1.0234850602427317e+00 2.0449639376081232e+00 1 0 1
1011 2 -1.7118019734988692e+00 5.4053810660822847e+00 6.1011226207198526e+00 1 0 0
833 2 1.4652595055427264e+01 5.7963262832886944e+00 2.7631187910091310e+00 -3 0 2
913 1 4.3179106845822322e+00 3.5182471255503454e+00 9.7925458272334573e+00 1 0 2
108 2 5.7430680203763345e+00 6.9587288458938197e+00 4.6814050861873584e+00 -3 0 -1
454 1 6.5520612632538953e+00 3.2734842486517417e+00 1.3163349739571473e+01 -1 0 0
767 2 1.3578592911933425e+01 3.5498352212578594e+00 6.1042262230225734e+00 -4 0 -1
591 2 9.7222883428442195e+00 3.9205079688316351e+00 1.0607311585345911e+01 -4 0 0
780 2 4.8663350376524264e+00 8.3803753811940354e+00 1.5485553363491189e+01 3 0 -1
976 1 4.1184288290416848e+00 9.1705825909880314e+00 8.0234125235554341e+00 -2 0 1
231 2 6.4978346659330448e+00 6.1840224331504534e-01 2.1064734504641134e+00 0 0 -2
145 1 2.3594052205037686e-01 5.3452306652338715e+00 1.3787052388565255e+00 0 0 0
511 1 -4.9737710391344780e-01 7.1616963010514159e+00 8.0324297346028182e+00 1 0 0
169 1 8.2748595824117555e+00 5.4214888947266546e+00 1.3384263233275492e+01 -4 0 0
574 1 1.0078227928508436e+01 9.0345427492397494e+00 8.7977749503902969e-01 -2 0 2
385 1 1.2907457275588717e+01 1.4592714291346842e+00 8.0739050933856333e+00 1 0 -2
695 2 9.7023205780737527e+00 8.1835047699783257e+00 8.2129362321768511e+00 -2 0 -1
920 2 8.4775893803978413e+00 3.4334142036830984e+00 1.5638775876940306e+01 0 0 -1
529 1 -4.8206428146437625e+00 1.6329031363602513e+00 1.5275887379343523e+01 0 0 0
512 2 -3.7306954327348985e-01 6.8131037748701999e+00 7.0940726043422124e+00 1 0 0
172 1 6.7396021915412661e+00 8.4454980083225273e+00 1.4556387374807779e+01 -1 0 -3
28 1 -3.8425423679265687e+00 6.9761168379444598e+00 1.7368729330222717e+01 -4 0 -3
351 2 9.1973418370307023e+00 1.3080875309768207e+00 1.2520729899658726e+01 4 0 4
123 2 2.3161098033374041e+00 4.2717095815026740e+00 3.8346152130121096e+00 -2 0 -1
880 1 -4.4318684625809546e-01 7.6641817340213398e+00 1.1534913047645867e+01 -2 0 3
724 1 1.3006631732650462e+01 3.6587310052731912e+00 9.4632885307852064e+00 1 0 1
891 2 -4.8275414520321425e-01 5.8747011493924903e+00 9.1729697060888427e+00 0 0 -1
214 1 9.5309306729068730e+00 1.7030334719144482e+00 1.7811643160878884e+01 1 0 -2
186 2 -2.1158198155358798e+00 9.6049353925619929e+00 1.8520032826317340e+01 -4 0 -6
207 2 -3.9043599319399469e-01 8.9846260618670168e+00 1.7917149561832183e+01 4 0 1
218 2 -5.7003299728055179e-01 5.9570581945843806e+00 1.7086808159992202e+01 1 0 0
449 2 8.1418193258295091e+00 6.4464760051587877e+00 7.5734254651043136e+00 0 0 0
598 1 1.3253588697755486e+01 1.0767053762381567e+00 1.1692303418710162e+01 -2 0 1
395 2 6.5524608877193913e+00 2.2977949908538364e+00 9.8340023261354563e+00 -4 0 -5
341 2 3.3479579007026312e+00 5.7814434959858141e-01 1.1047243416970927e+01 -3 0 -1
262 1 -2.3348828017983054e+00 9.4512396841600754e+00 1.0432506050095689e+01 1 0 1
113 2 1.3469402638483321e+00 8.7536916576238895e+00 1.3796851503839607e+00 -1 0 0
610 1 -1.8982385495346423e+00 1.0585515149294297e+01 1.2801149541555336e+01 0 0 1
375 2 3.6187312120202986e+00 5.0119862441318919e+00 1.5580856797660754e+01 1 0 1
307 1 -3.5807341087936675e+00 6.6075032667011113e+00 1.3008215055285552e+01 1 0 2
149 2 -1.0793444697185857e+00 3.4225394563308713e+00 1.5838639214478134e+01 -3 0 -2
863 2 8.4470940469681999e+00 6.2504734880684447e+00 1.7147113979410179e+01 -5 0 -3
614 2 1.2504304297258249e+01 7.2437840520738623e+00 1.6011341531342604e+00 -3 0 0
1549 1 6.6222244072133538e+00 1.7014441479436584e+00 1.7850385253101400e+01 -1 0 0
1057 1 5.3424777951636679e+00 7.1218812017245288e+00 1.1193002112162656e+00 1 0 -1
959 2 4.8444687442160461e-01 2.7787532023565733e+00 1.8917320650065225e+01 0 0 -2
116 2 2.5356502515222630e+00 6.5755566768012619e+00 1.8532776739311231e+01 -4 0 -4
132 2 8.4421516223699555e+00 6.2733173735013699e+00 1.4870231621974366e+01 0 0 1
657 2 -5.1525155350321139e+00 9.7489154584709681e+00 1.7156707843025487e+01 0 0 0
260 2 1.0267804179706568e+01 9.9315475005291383e+00 4.2551881798467823e+00 -1 0 0
30 2 -3.6496812016885389e+00 6.3812394415524079e+00 1.8140690666341129e+01 -4 0 -3
601 1 7.7293739016710639e-01 2.4367051439756819e+00 1.3105431675863361e+01 -3 0 -3
669 2 1.3563350753579307e+01 2.6632352967752446e+00 1.9871840737512194e+00 -2 0 -2
321 2 2.2968695950722302e+00 5.8784516511229361e+00 9.0756869728400353e+00 -3 0 -3
1517 2 1.1835626707566412e+01 5.7375989314006590e+00 2.9494059365317402e+00 -2 0 0
713 2 1.1655918192642565e+01 5.9147318832643911e+00 7.5528186726862661e+00 0 0 3
258 2 1.0057315418292472e+01 1.0101780208135599e+01 1.1895667409335926e+01 -1 0 -1
1079 2 1.5084095387424281e+01 3.9721297366042116e+00 7.3144460670435603e+00 0 1 2
552 2 1.0453311004498325e+01 4.6553936354662913e+00 1.5918429964948650e+01 0 0 1
387 2 1.1937212633160014e+01 1.4652054604240383e+00 8.2017232326097087e+00 1 0 -2
31 1 1.4504445133652876e+01 6.9799399000718809e+00 8.3581192101357722e+00 -5 0 -4
915 2 3.6453087726174083e+00 3.4097316585435653e+00 1.0486132996165535e+01 1 0 2
423 2 1.2496274906054868e+01 8.1096400834336251e+00 1.0927516267217447e+01 -1 0 0
688 1 9.8850956530131207e+00 3.8840567038854505e+00 6.7039901325546873e+00 -2 0 0
475 1 7.8784556794969092e+00 5.5568947881565283e+00 6.1466440633705242e+00 -1 0 4
483 2 -2.2003440842459439e+00 2.1604497672256029e+00 1.1199572682696214e+01 -1 0 -2
439 1 -1.9652229642028196e-01 6.5402134102664577e+00 1.5578862411507457e+01 -2 0 -2
762 2 5.7103949905033087e+00 6.1056288411205859e+00 2.3707187598536095e+00 -2 0 2
289 1 7.0499175880345737e+00 2.8932859903388390e+00 8.5578176729827700e+00 -1 0 3
112 1 7.3759424066103652e-01 9.4497661036119407e+00 1.2401073683390380e+00 -1 0 0
198 2 4.1837347609251392e+00 3.9777608185332944e+00 9.8900789928866817e-01 -2 0 -1
210 2 1.0811154814052887e+01 4.7930865159389358e-01 5.4628066350008933e+00 3 0 0
130 1 8.7241576062776964e+00 6.9020005835022884e+00 1.5546500600494694e+01 0 0 1
224 2 6.3749239198651719e-01 7.8030041161721728e+00 4.2296900317594348e+00 -1 0 0
771 2 1.0490813002417955e+01 1.0727413962956216e+01 7.6785273515554691e+00 0 0 -3
1454 2 1.5015561499255767e+01 3.7591789526767916e+00 8.2061913780479900e-01 0 1 -1
802 1 1.0120808228485966e+01 1.5228890973666245e+00 8.5527257661692424e+00 -2 0 0
714 2 1.1986596684213540e+01 4.9008125148168933e+00 8.7372639909534264e+00 0 0 3
881 2 -8.8492735534220879e-01 6.8837257150937559e+00 1.1857269340014929e+01 -2 0 3
705 2 -1.4913162255650203e+00 9.9596227323998896e+00 6.5546378380359247e+00 0 0 0
525 2 1.3464724227608666e+01 8.2370514097629517e+00 8.3931424625247395e+00 -3 0 -4
349 1 9.7870356641637404e+00 2.0046364080677606e+00 1.2906981751423205e+01 4 0 4
290 2 7.7473861967655733e+00 3.4526133085962649e+00 8.9759441527181938e+00 -1 0 3
110 2 1.0482500620513861e+01 4.9696304104906881e+00 1.3059768910583827e+01 -1 0 -5
1618 1 4.0610942123457932e+00 9.5702829716997915e+00 3.5089684254322111e+00 2 0 2
896 2 4.3668047983257274e-01 2.6430301473333841e+00 1.4650378624845967e+01 0 0 -3
174 2 6.8120896288430446e+00 9.2805899194754193e+00 1.4121785721948822e+01 -1 0 -3
1009 1 -7.6732465291035035e-01 5.6344060505616840e+00 5.9475000364662387e+00 1 0 0
882 2 -1.0803137992236609e+00 8.0568972269787871e+00 1.0903174494148312e+01 -2 0 3
124 1 1.1697653523407279e+01 4.6863217217451778e+00 4.4321074182211495e-01 -2 0 2
870 2 1.2925942923654095e+01 9.7407953581535089e+00 6.5217948683759808e+00 -1 0 0
170 2 7.5468740292669461e+00 4.7671541750393178e+00 1.3258014390357300e+01 -4 0 0
776 2 -1.8482047842112732e+00 9.5722310168585212e-01 6.0317149685186324e+00 -1 0 3
967 1 -2.0509766589088629e+00 3.0720455481450051e+00 1.2576985072295438e+01 -1 0 1
701 2 8.9148818769422107e+00 1.3774697629116428e+00 1.7357672447663810e+00 -3 0 -2
1089 2 1.7485726387611527e+00 8.2912448208413689e+00 1.3783653421700503e+01 0 0 0
1005 2 1.0973890889103696e+01 3.9921493759691091e+00 3.7863963582161491e+00 -4 0 -1
599 2 1.4003577083595925e+01 1.2174312356914281e+00 1.1078607147496806e+01 -2 0 1
471 2 6.7646243207021710e+00 8.5540697270834247e+00 5.8692833685073689e+00 -4 0 -2
783 2 1.0300711714884607e+00 2.6378491841348026e+00 1.0003923369137176e+01 -2 0 -3
950 2 4.5729852881575539e-01 5.3098856237055445e+00 1.2845449243691252e+01 -1 0 1
613 1 1.1785377675736628e+01 7.3687974155679701e+00 2.1933609603748381e+00 -3 0 0
394 1 6.5539291809258700e+00 1.9869597136105621e+00 1.0797696083765301e+01 -4 0 -5
129 2 6.7678349949735042e+00 9.3790372595440221e+00 9.8460411068056040e+00 -4 0 -2
455 2 6.6955359859369299e+00 2.7118858780145421e+00 1.2345791445157516e+01 -1 0 0
263 2 -3.1419669040954856e+00 8.9344818522104017e+00 1.0533340999463618e+01 1 0 1
105 2 1.1251412254246214e+00 6.9352664247422311e+00 1.0720616345749884e+01 -1 0 2
430 1 3.6939122540104625e+00 2.8517557680173904e+00 1.8081773141554006e+01 1 0 3
487 1 7.3032101503754179e+00 2.0258081183052026e+00 5.8965677146862197e+00 -5 0 -1
575 2 -5.5987964248693265e+00 7.4241244864776119e+00 1.8056815086794057e+01 0 0 -1
1597 1 1.1112892900362720e+01 6.9321791539624851e+00 1.0698204172838262e+01 0 0 1
61 1 -2.1939911911359467e+00 9.3346744741893362e-01 1.4394913319793952e+01 -1 0 -2
470 2 7.4752089000959128e+00 9.5348021973431116e+00 6.9430626884610938e+00 -5 0 -2
275 2 6.7804990707441712e+00 1.0280062846232273e+01 4.6998645247792679e+00 5 0 0
703 1 -1.3704631546296135e+00 9.5103774736726479e+00 5.6782916590276891e+00 0 0 0
350 2 9.4699968069196068e+00 2.3835762606589155e+00 1.3715746768294890e+01 4 0 4
71 2 -3.2569175578785843e+00 4.7019426499342831e+00 1.5471663996695856e+01 0 0 0
60 2 1.1188956578539106e+01 6.9834778182631148e+00 1.3719090691005157e+01 -1 0 2
308 2 -3.9312407517931711e+00 6.2007940348539536e+00 1.3811963634319932e+01 1 0 2
561 2 2.8520587551556620e+00 6.2803784911870668e+00 5.2612372613589713e+00 -1 0 0
1553 2 8.7762346992198381e+00 8.1305712613661463e+00 1.2223963995209347e+01 0 0 1
1093 1 6.5229710483217316e+00 7.0989835370121668e-01 1.4764195779872791e+01 0 0 0
911 2 1.4177492943409122e+01 3.1147121665489264e-01 8.1551982752585950e+00 -2 0 1
268 1 9.6050472753838143e+00 1.0851568336839646e+01 1.5091465339409082e+01 1 0 -4
299 2 -4.0993506191938618e+00 8.8487053454981552e+00 1.5289737286234788e+01 -2 0 -1
509 2 5.9853867324385490e+00 7.2981394110417481e+00 1.3613068133441011e+01 -2 0 -1
272 2 3.6570149844722546e+00 7.4365865335080814e+00 1.3237024909256971e+00 1 0 -1
213 2 1.6205649822737463e+01 2.5181640609401401e+00 3.1222737811206791e+00 -4 0 -1
778 1 4.0024969527177916e+00 8.8068444763173002e+00 1.5400861680869259e+01 3 0 0
131 2 9.5221042841202923e+00 7.1756596647252380e+00 1.5099181791768274e+01 0 0 1
895 1 3.5413310097018513e-01 2.9212883205744249e+00 1.5596561704713563e+01 -1 0 -3
363 2 1.6075047450075719e+01 1.0765321319540316e+01 4.4688001598020746e+00 -2 0 -1
256 1 9.9561318974130621e+00 9.5824279581748755e+00 1.2729208210928523e+01 -1 0 -1
716 2 1.6353566792074150e+00 4.4924777529176776e+00 7.5561517207821369e+00 1 0 2
756 2 6.8690337062057782e+00 4.2943286378651386e+00 3.4433276347892843e+00 1 0 3
684 2 3.5596516516429020e+00 1.1213498897937205e+01 1.3215471947657742e+01 2 0 1
403 1 -2.1491627252405809e-01 2.3359729975746185e-01 1.1462010691988128e+01 3 0 2
738 2 1.0737008469089082e+01 1.0109406923467366e+00 1.3822022982932561e+01 -1 0 1
1490 2 -2.2176465992059669e+00 1.8330329943176391e+00 9.6105729013584043e+00 -2 0 -2
904 1 7.1568649784450482e+00 1.1243443643726426e+01 1.6395336573576220e+01 -3 0 1
199 1 1.2038047232481002e+01 6.6887059691451718e+00 6.1435903546087083e+00 -2 0 -5
501 2 -6.5989361237890898e-02 6.2488042389975069e+00 2.7870868927739609e+00 2 0 0
1173 2 1.3788318363727106e+01 1.1579639004395030e+00 4.0007205392189800e+00 1 0 0
821 2 3.6852887703865242e+00 1.0379926414755859e+01 5.2577292782699185e+00 -3 0 2
109 1 1.1338284116822017e+01 5.5075852288381899e+00 1.2936476710847259e+01 -1 0 -5
148 1 -1.9602201279319451e+00 3.7029180475866244e+00 1.6222908093709908e+01 -3 0 -2
415 1 2.2885924562234568e+00 4.4145452101468976e+00 1.6454974737176293e+01 0 0 -2
597 2 1.4891591171842430e+01 7.4437214917577670e+00 1.3460542374489248e+00 2 0 -2
779 2 4.1382630746041791e+00 9.4318340173999822e+00 1.4710453707096569e+01 3 0 0
1080 2 -4.8831874852628809e+00 4.9479874367938157e+00 1.5314268966724644e+01 0 0 0
125 2 1.1358754999936714e+01 3.8277223810951289e+00 1.9199716326338351e-01 -2 0 2
928 1 3.9090059835343625e+00 8.4023938383648673e+00 1.1423539921615527e+01 1 0 1
208 1 1.0013889700923377e+01 9.3714096357085996e-01 5.1745082349222624e+00 3 0 0
1002 2 8.7632876768305490e-01 6.7289688349085730e-01 1.7884483861849347e+01 1 0 1
273 2 2.8685514298793624e+00 7.8827646693697311e+00 2.5300170238304149e+00 1 0 0
726 2 1.3567555695258218e+01 4.1245977854222780e+00 1.0110920245986147e+01 1 0 1
1455 2 9.2770941814068983e+00 4.4003414930034692e+00 1.8836094791984081e+01 0 1 -2
1004 2 9.3884854610129089e+00 3.6396694119636566e+00 3.7451541219398323e+00 -4 0 -1
988 1 9.8230690587303933e+00 9.1578347733676626e+00 1.7690486804263450e+01 -3 0 0
551 2 1.1222059376304179e+01 5.7563405253772579e+00 1.6873217820603742e+01 0 0 1
103 1 2.0390845769152008e+00 6.6494418457705970e+00 1.0559669917832446e+01 -1 0 1
167 2 8.5200043374793797e+00 5.5437347373683901e+00 9.5310850299054639e+00 -4 0 -3
1552 1 8.5048528567019019e+00 7.4567220294228873e+00 1.1601559940715218e+01 0 0 1
392 2 9.1934328784158001e+00 7.3819695188327934e+00 4.2874927033533199e+00 -2 0 -1
147 2 1.0235355012976766e-01 6.0608788047635223e+00 7.4223796029855793e-01 0 0 0
510 2 4.9592331918268835e+00 5.9590416583384807e+00 1.3775910622194010e+01 -2 0 -1
366 2 1.0647945059824253e+00 1.0536243893672822e+01 2.4716548881488558e+00 0 0 0
943 1 6.9977767921886631e+00 1.0539659921793097e+01 1.3079057023995254e+01 1 0 2
168 2 7.6312022957219439e+00 5.0349634753028587e+00 1.0525352321767834e+01 -4 0 -2
866 2 5.6017024663190149e+00 4.0070290837635074e+00 7.7443519461584955e+00 -5 0 -1
51 2 6.2583726131284392e+00 8.5395679239686224e+00 1.8028416277325618e+01 -1 0 -1
294 2 3.9669646016421760e+00 9.7670218584451227e+00 1.6899133087617543e+01 -2 0 -4
72 2 1.4423497981420311e+01 5.4337203568839376e+00 7.1531045365727577e+00 0 0 2
785 2 1.3841110165486699e+01 1.0133936347224813e+01 5.4195199908083291e-01 -2 0 -2
215 2 9.6031894981166950e+00 2.3176360663205862e+00 1.8553256622819514e+01 1 0 -2
33 2 1.4352255203256178e+01 6.4438650258076509e+00 9.1564586544031332e+00 -5 0 -4
1582 1 1.1416459557807062e+01 7.1487158698401885e+00 1.8255721338072657e+01 -1 0 -1
842 2 1.4015799395542453e+01 8.4751190023945835e+00 4.5666868402849099e+00 -5 0 -4
949 1 -4.8339220665966831e-01 5.4229443170344993e+00 1.3080277408513968e+01 -1 0 1
922 1 6.0704165978303211e+00 5.4530559889334853e+00 1.0918474131419408e+01 -3 0 -3
469 1 7.5283029515260234e+00 9.2175722860978535e+00 5.9833680813559278e+00 -4 0 -2
1168 1 2.8224278893391870e+00 4.9891036833332736e+00 1.0037732872101246e-01 0 0 1
134 2 4.4683303855623278e+00 2.4777968971691573e+00 2.8317054256577792e+00 1 0 -1
164 2 4.0931881408196578e+00 2.3362497146857089e+00 1.4900704328437625e+01 3 0 1
166 1 8.3767448944310416e+00 4.6952719906218165e+00 1.0010859906123374e+01 -4 0 -2
79 1 -4.9681233533706948e+00 3.0483053595015148e+00 1.7545416123953551e+01 -3 0 1
219 2 -1.3600730417716607e+00 4.7856446104341392e+00 1.7596623259145577e+01 1 0 0
901 1 1.2976277279092743e+01 9.4730283243265490e+00 3.4369218674706925e+00 -3 0 -1
284 2 1.0724705295576658e+00 2.8552984405077741e+00 2.4792001195460132e+00 -3 0 2
40 1 1.6269657779484955e+01 8.6842260527005912e+00 1.7261417310286336e+00 -1 0 4
391 1 8.4928974178303207e+00 6.9332710957146357e+00 3.7529186320376975e+00 -2 0 -1
421 1 1.3260728691341225e+01 8.4853898024876226e+00 1.1417992678072393e+01 -1 0 0
163 1 4.1256405028340994e+00 1.6696881555611303e+00 1.5606619826424581e+01 3 0 0
615 2 1.2058844839997869e+01 8.1600377182882315e+00 2.7296315219368159e+00 -3 0 0
212 2 1.5590055100394846e+01 3.8438099296618189e+00 3.8373277133463097e+00 -4 0 -1
813 2 3.1430839308368519e+00 4.0674885385283170e+00 1.2988514814322434e+01 -3 0 -2
95 2 9.4962911759310558e+00 8.5642112040490783e+00 5.7711048721275926e+00 -2 0 -2
1583 2 9.1767933806109507e+00 8.8733280863892130e+00 1.1789218370322239e+00 -2 1 2
968 2 -2.8526747902620682e+00 3.6121026301612806e+00 1.2749340140150812e+01 -1 0 1
171 2 8.2941931092615295e+00 6.1242240116395585e+00 1.2691148642410093e+01 -4 0 0
460 1 1.6380178145228981e+00 1.0958850489835980e+01 1.0631507398837769e+01 -3 0 -3