LAMMPS data file via write_data, version 3 Mar 2020, timestep = 0

2016 atoms
2 atom types

0.0000000000000000e+00 1.7928876769066843e+01 xlo xhi
-1.3734950728131707e+00 4.6369655049728486e+01 ylo yhi
0.0000000000000000e+00 1.9067574588757299e+01 zlo zhi
4.5323792643414289e-02 -6.6579976544218731e+00 -2.3410123638612390e-02 xy xz yz

Masses

1 16
2 2

Atoms # atomic

579 2 7.0366134190692913e+00 3.2825464618446656e+00 1.0438419112972582e+01 0 0 0
223 1 6.9000211295888896e+00 5.0386754391568482e+00 1.7358757141692789e+00 -2 0 -1
995 2 1.0122966141715850e+01 6.1490738073625479e+00 9.5795304217691815e+00 3 0 1
654 2 2.0103098671721709e+00 5.3088629412477903e+00 2.4159587585181201e+00 -1 0 0
394 1 1.2275776009927801e+01 6.5193812498572941e+00 1.3741693341492660e+00 -3 0 -3
578 2 7.0380353027087645e+00 2.8724577151102348e+00 1.1888335019732883e+01 0 0 0
929 2 -1.7669555463900788e+00 5.0031207066413819e-01 6.0769359478090603e+00 1 0 0
255 2 1.1871461321177952e+01 9.3565902639827829e+00 1.4288902951760127e+01 -3 0 -3
35 2 1.5854411115860801e+01 -1.2969359448479068e+00 2.6962207451527282e+00 -2 0 0
671 2 -2.8613816952142201e-01 -8.2087883840395748e-01 6.8539458727287004e+00 -3 0 -1
299 2 -5.1465968237362620e+00 4.0783046047776699e+00 1.5954358612442510e+01 -2 0 -2
896 2 9.8439062511813464e+00 6.1168959397676739e+00 1.8093741831980356e+01 -1 0 -1
316 1 -8.7675529109122152e-01 1.0379965355970292e+01 1.5424781599178029e+01 1 0 -1
406 1 -1.7564706289753245e+00 8.6175184803644056e-01 9.0269037610133260e+00 -2 0 -2
276 2 6.5220212366427708e+00 4.3885227252326908e-01 1.8320050832034205e+01 2 0 -1
596 2 3.6443344726072056e+00 6.8786895396024370e+00 6.5726581150668686e+00 3 0 -2
368 2 6.0667323774943238e+00 6.3079828691537738e+00 1.8397664152275809e+01 -2 0 -1
531 2 7.4632252126821479e+00 -1.1314786390986595e+00 2.5264995667772534e+00 -1 0 0
881 2 1.0635463460351859e+01 3.6705242038443653e-01 3.2875101163212417e+00 -3 0 2
319 1 1.0212666921106418e+01 -3.0604367703376378e-01 1.4247327191249228e+01 -4 0 -3
53 2 9.4466262884237846e+00 7.3394131497836188e+00 1.2040188740435440e+00 2 0 0
912 2 1.2177674657587149e+01 1.8858303559883280e+00 6.7233433804708742e+00 -2 0 1
609 2 6.2717293754766335e+00 1.6927743331938818e+00 2.0151429044196485e+00 -3 0 0
1583 2 -3.3113663109166440e+00 1.4907079912023593e+00 1.4607534460097522e+01 0 1 1
122 2 1.0727678526211379e+01 7.3060507153170917e+00 1.5099385959457862e+01 -2 0 -1
295 1 2.9941892421862706e+00 8.2558398049753556e+00 3.5903364421061164e+00 2 0 3
407 2 -2.3770867738595283e+00 1.6171122285860116e+00 8.8919806925704936e+00 -2 0 -2
707 2 1.0149544480389379e+00 2.7885490324702547e+00 1.6213568312562984e+01 -1 0 -1
972 2 3.7218991794395997e+00 5.6154137931636914e+00 1.3505801932126256e+00 0 0 1
448 1 4.2250237310931853e+00 6.9344510852904939e+00 9.5140337926295278e+00 -1 0 1
244 1 1.1385418738696135e+01 5.8992096478375000e+00 1.3742611920155460e+01 -4 0 -4
962 2 9.4232795204336206e-01 -4.4796712324467580e-01 1.3771140641863898e+01 -3 0 -1
713 2 -1.8387829066688584e+00 -9.8248490861946713e-01 1.1750414433827087e+01 0 0 3
191 2 1.7008605196432960e+00 8.9005538384360925e+00 1.6902041577085026e+01 -2 0 -3
981 2 1.3130935148715039e+01 9.1237159239892698e+00 1.0283470521782354e+01 -2 0 0
585 2 -7.9623147740335165e-01 1.0258234185506621e+01 6.7183633596133188e+00 -4 0 -4
979 1 1.3965887084788600e+01 9.4294153734366564e+00 9.9400944341885431e+00 -2 0 0
686 2 1.4965030571799121e+00 1.1503917608203129e-01 8.9039210228116890e+00 -3 0 0
978 2 5.3298196524976911e+00 -7.1219211005123084e-01 1.6138955211361111e+01 -3 0 -1
449 2 4.5827535870671703e+00 6.5938339526945553e+00 1.0376085940959612e+01 -1 0 1
524 2 3.6108720810253483e+00 2.8336213252338407e+00 9.8622962867530752e+00 -2 0 -4
619 1 -2.0181379615133936e+00 7.5070532459634336e+00 1.8092376157696716e+01 -3 0 -1
523 1 3.1524759608680277e+00 3.6299348887774858e+00 9.5375710965144904e+00 -2 0 -4
658 1 5.3685793315551926e+00 5.8907423057279980e+00 1.1752574883865062e+01 -1 0 -2
206 2 4.4050063838410427e+00 2.0142580428284851e+00 1.2022220697852875e+01 3 0 0
96 2 -2.4983462772190457e-01 6.9259555663624415e+00 4.4732786904742783e+00 -1 0 -1
441 2 -1.7325051385495511e+00 5.2421253082530361e+00 1.5187175312782864e+01 -2 0 -1
151 1 1.1024515989790928e+01 4.1848382303155400e+00 5.5787091716283577e-01 3 0 0
781 1 1.1241613409916219e+01 3.1421554411416128e+00 1.8620345640751207e+01 -3 0 -3
880 1 1.0317521317698846e+01 -5.3248007692958821e-01 3.6100177125987978e+00 -3 0 2
626 2 6.7863943968633125e+00 5.6917857082930645e+00 1.4421174284308780e+01 0 0 -1
504 2 4.6694676520109475e+00 6.1647272554971044e-02 8.9324944772475998e+00 0 0 -1
788 2 8.2146991897987682e+00 4.3784595876183054e+00 6.2204320970167526e+00 -2 0 0
382 1 1.3346092644303096e+00 2.5203105041533584e+00 3.6097684631838418e+00 -1 0 1
905 2 1.1664706626847229e+01 9.0750963902148030e+00 4.4350721003814302e+00 -3 0 2
712 1 -2.3367398151215886e+00 -2.1128765926943038e-01 1.1518489677793896e+01 0 0 3
54 2 9.7664163197157805e+00 8.7710604498048319e+00 1.9108961631055177e+00 2 0 0
889 1 1.0645497848801821e+01 -1.1261606990503608e+00 6.6642844992440704e+00 -1 0 0
689 2 1.0200803161208309e+00 3.8315511376383293e+00 5.3264664951220269e+00 -2 0 0
336 2 9.6242338513432220e+00 6.8487280644885313e+00 7.1884161565178246e+00 -2 0 -2
392 2 2.9805232618954118e+00 4.5183770420635865e+00 1.1817786334865035e+01 -1 0 -1
652 1 2.8613062075232514e+00 5.5735207721822428e+00 2.8532337451155620e+00 -1 0 0
52 1 1.0179589331843948e+01 7.9545925251326768e+00 1.5378425989278157e+00 2 0 0
356 2 -4.0299447719911541e+00 2.2447981114169400e+00 1.8664517767074770e+01 -4 0 -3
477 2 6.9208221703583064e+00 5.9807020959107229e+00 8.8732173246004109e+00 -1 0 2
500 2 2.6176375040410651e+00 6.6600289377188382e-01 1.2594039033323515e+01 1 0 0
367 1 6.2691673242343393e+00 6.3238698507697126e+00 1.7462694702126210e+01 -2 0 -1
806 2 -3.2998452165378023e+00 6.5904743529882204e+00 1.0526268926313909e+01 -3 0 1
437 2 1.6187775079946181e+00 9.6297678019594954e+00 6.6495113955952219e+00 -2 0 -1
810 2 8.5883678521411362e+00 5.8608771469847545e+00 1.1211022886483287e+01 -4 0 -1
930 2 1.5543158877564393e+01 1.9391134263956977e+00 6.6881138432776934e+00 0 0 0
702 2 6.6428993640957721e+00 1.9520640674037848e+00 1.5492122142034502e+01 -3 0 -3
501 2 1.6810046124844198e+00 2.5579615213619844e-01 1.1428881174405474e+01 1 0 0
625 1 6.5785363683509201e+00 4.9353159421400639e+00 1.4935467858273153e+01 0 0 -1
949 1 -4.2955884523295902e+00 -1.7298733731212712e-01 1.6944113171186569e+01 -1 0 1
101 2 3.3565206872825031e+00 4.7290753724123604e+00 7.8902329387206915e+00 -1 0 -1
384 2 2.3129026311027912e+00 2.6329776747904932e+00 3.5702526110430557e+00 -1 0 1
245 2 1.1934010875769932e+01 6.1074727947503833e+00 1.2954602800221732e+01 -4 0 -4
622 1 -1.3265958133164704e+00 1.5440985339115638e+00 1.7708953277544211e+01 -2 0 -2
624 2 -3.7511317807003142e-01 1.9670436878761537e+00 1.7700503048683974e+01 -2 0 -2
179 2 1.4382031995281471e+01 2.8912531561309827e+00 2.7600702828159362e-01 -3 0 0
890 2 1.1035210889404821e+01 -6.4643202475640460e-01 5.8755587356662220e+00 -1 0 0
776 2 1.0464549020881158e+01 1.2611576958176531e+00 1.3262134847198386e+00 -2 0 2
321 2 1.0604180664120253e+01 3.6840858658403697e-02 1.3383588840260897e+01 -4 0 -3
539 2 1.6024755284609076e+00 -5.6151350411041490e-01 2.3533319080530077e+00 -4 0 -3
600 2 3.9005298756692675e-02 1.6691867664156419e+00 1.2503206538375034e+01 -3 0 1
49 1 1.4709419191253412e+01 3.0130859683748747e+00 8.3687716756139690e+00 -1 0 0
183 2 -2.9699922913283439e-01 3.4903493562366510e+00 3.2429858009902435e+00 0 0 0
561 2 8.4496843953730547e+00 -9.7009236754299966e-01 7.0494231916308205e+00 -2 0 1
393 2 4.1822172927694874e+00 5.1872615352101334e+00 1.2305197346985119e+01 -1 0 -1
190 1 2.5491786164958663e+00 9.1784557332745571e+00 1.6586588323409401e+01 -2 0 -3
87 2 1.0159419305719197e+01 -1.2444138498345245e+00 1.8945948189921989e+01 1 0 -3
135 2 -1.1206188468201059e+00 6.6639191374398390e+00 1.0328254690831631e+01 1 0 -1
778 1 7.8546084117312116e+00 6.3532207517761696e+00 3.8133546694159417e+00 1 0 0
403 1 1.4231811630877531e+00 -1.0156846726863882e+00 6.4534804223401219e+00 3 0 1
598 1 -8.7526748886912609e-01 1.9414451556968513e+00 1.2617190326414280e+01 -3 0 1
120 2 3.7270602123477801e+00 4.0366723795610238e+00 3.1430014804660300e+00 -2 0 -2
858 2 3.7698309929596490e+00 1.0385960571291365e+01 7.5725015811982708e+00 -1 0 -3
640 1 5.2963196395396661e-01 7.6953480798078644e+00 1.7554048639254539e+01 4 0 -1
753 2 -3.9294286891182821e+00 4.3813362893338121e+00 1.7590143655847879e+01 0 0 2
839 2 7.4987509904988059e-01 9.4961624368593611e+00 1.5685734650573120e+00 0 0 -2
119 2 4.3656838368590787e+00 2.7290625189667388e+00 2.7536552067910565e+00 -2 0 -2
525 2 2.2553939496239988e+00 3.3335478680856392e+00 9.3033202384263465e+00 -2 0 -4
495 2 2.2390138291710651e+00 7.1176198827366246e+00 1.2600624989230457e+01 -3 0 -2
971 2 3.9272364757293139e+00 4.5295072709854445e+00 1.9520464129649714e-01 0 0 1
559 1 7.6108876783678223e+00 -5.7208436073003210e-01 7.0761202183214351e+00 -2 0 1
212 2 -8.6661137036132740e-01 5.5191105186586773e+00 8.1299184269390850e+00 -4 0 -2
701 2 6.7335150082757211e+00 3.2846340269336212e+00 1.4783956931319434e+01 -3 0 -3
838 1 5.2534583586736339e-01 9.4952657229758106e+00 2.5450965268847607e+00 0 0 -2
470 2 1.5213487605710910e+01 1.5182796409772976e+00 4.6505176751418933e+00 -7 0 -2
471 2 1.4420980373853229e+01 2.2712613154271342e+00 3.4715199919553963e+00 -6 0 -2
708 2 4.1726762507778581e-01 4.1360347930607988e+00 1.6649742919194921e+01 -1 0 -1
980 2 1.3845169659244560e+01 9.9572195141004620e+00 9.0847191251430992e+00 -2 0 0
46 1 1.3131942637660043e+01 6.6340268186635498e+00 8.0153454604047329e+00 -3 0 0
19 1 1.1752018667615237e+01 8.9113670640176288e+00 7.8173111600743468e+00 -3 0 -3
856 1 3.0091792570642713e+00 9.7251073904752978e+00 7.6766840384008352e+00 -1 0 -3
627 2 6.3683676611142310e+00 5.3132703555397018e+00 1.5834563492503502e+01 0 0 -1
111 2 2.7727492108608640e+00 2.0442609577111397e+00 1.4559002326280035e+01 1 0 -4
869 2 -4.0941929114406364e+00 8.5841727227075406e+00 1.3436415833921741e+01 2 0 0
16 1 3.2297959617003560e+00 6.3387785933798941e+00 1.5666900265915173e+01 0 0 1
178 1 7.0909961084634077e+00 3.4430198676085961e+00 1.8887997966540595e+01 -3 0 -1
974 2 9.7589995304495147e+00 3.0877179578538505e-01 1.5802765104110971e+01 -4 0 -2
118 1 3.9783059762899455e+00 3.2047331857517172e+00 3.5169927222793991e+00 -2 0 -2
985 1 4.3855448193234716e+00 1.0203275883385393e+01 1.8483079376439832e+01 -2 0 -3
623 2 -1.7086443504894051e+00 1.6415552207059596e+00 1.6831117122343763e+01 -2 0 -2
1668 2 5.8496828202025544e+00 6.5403880808756583e+00 1.2318904564395064e+01 -1 1 -2
644 2 1.1648335579988283e+01 1.1818662722891053e+00 1.1793967833891319e+01 -4 0 -3
215 2 1.5945746519620911e+01 7.0231416919325635e+00 2.8020008044016405e+00 -1 0 -2
308 2 3.1087980910203146e+00 1.0470938711838345e+01 6.7167577598831119e-01 1 0 2
239 2 6.5454149028574919e+00 8.1464148187125467e+00 1.3580122565714875e+01 0 0 0
716 2 8.4183742767643466e+00 2.1736763164463668e+00 1.9349757899121438e+00 1 0 2
717 2 8.1144844084636620e+00 2.4567854346848841e+00 3.3823648079499002e+00 1 0 2
240 2 7.9475204789412164e+00 7.6081115939373305e+00 1.3026996726514417e+01 0 0 0
84 2 -7.7121988737591174e-01 7.3689823787520652e+00 6.6357910475492110e+00 0 0 -3
17 2 3.3194963548705889e+00 6.0450152306035516e+00 1.4768094907175398e+01 0 0 1
779 2 7.3018688343703131e+00 6.0283424553211091e+00 3.0599001260421770e+00 1 0 0
438 2 7.8483873408138449e-01 8.6359889690417049e+00 5.6462916220005379e+00 -2 0 0
645 2 1.0623538277671750e+01 1.4319368905729468e-01 1.1159181318203133e+01 -4 0 -3
613 1 2.8516698679056649e+00 4.7593470432904272e+00 1.7662834521022088e+01 -2 0 -1
246 2 1.1857380706194153e+01 5.2369453543210254e+00 1.4337371158794923e+01 -4 0 -4
238 1 7.0860365134677190e+00 7.3444101757215581e+00 1.3451067172848910e+01 0 0 0
522 2 9.8119780305447595e+00 9.0325168601875250e-01 8.2942191065080770e+00 -5 0 -2
715 1 7.7394015721427358e+00 2.6523628812483802e+00 2.5275746363244056e+00 1 0 2
115 1 -3.3588046533548535e+00 4.2591787239112122e+00 1.2185946015145786e+01 -4 0 -5
426 2 1.2421075805775899e+01 3.9442440442195030e+00 3.2545480212608306e+00 -2 0 1
976 1 4.3679601008846882e+00 -6.9274288706590981e-01 1.6135708143403068e+01 -3 0 -1
404 2 1.9050046824675793e+00 -2.4942342258034689e-01 6.0854391477523118e+00 3 0 1
503 2 4.5740526313486667e+00 1.0359904754936444e-01 1.0484358308905254e+01 0 0 0
933 2 -1.0726447291243164e+00 1.8266254259478996e+00 1.4483520333673267e+01 -2 0 -1
857 2 2.7736064642850855e+00 9.7014015188584342e+00 8.6165710342915762e+00 -1 0 -3
868 1 -3.4212715923441706e+00 7.9292467754687923e+00 1.3070057056634793e+01 2 0 0
192 2 2.4518077646829575e+00 1.0027927276956941e+01 1.6158866864250982e+01 -2 0 -3
18 2 3.2122287509357301e+00 7.3081766876615291e+00 1.5715957028456298e+01 0 0 1
502 1 4.3453484794422828e+00 -4.2125507568112797e-01 9.6843289893798907e+00 0 0 -1
711 2 5.0786174206144752e+00 9.7036230073443424e+00 1.3640521299980040e+01 -3 0 -2
785 2 1.6901858796125759e+00 7.5237228365116726e-01 9.0140900444133931e-01 -3 0 -2
870 2 -3.9648764155095741e+00 7.3879445261762413e+00 1.2495570788518412e+01 2 0 0
211 1 -1.0334279084678841e+00 4.6058358674486879e+00 7.8036116240775151e+00 -4 0 -2
387 2 7.0607919885034178e+00 7.0364865819139588e+00 6.5640728332177991e+00 0 0 -2
85 1 9.4365892579842559e+00 -5.8326323584144457e-01 1.8913100252258392e+01 1 0 -3
643 1 1.0799878284212664e+01 7.6055780233570180e-01 1.1887642812211215e+01 -4 0 -3
1914 2 1.3209198159476381e+01 9.2670342193288153e+00 4.5004111203755190e+00 -3 0 2
620 2 -2.3740590162178057e+00 8.1622570855330405e+00 1.8724046579085933e+01 -3 0 -1
750 2 5.0292756713573805e+00 9.8532499278047272e+00 1.0654868341956524e+01 -3 0 1
116 2 -2.6537209272942008e+00 4.0884746486904220e+00 1.1557746196995875e+01 -4 0 -5
224 2 6.0917719364775005e+00 4.9664962143136417e+00 1.2415224557960520e+00 -2 0 -1
761 2 6.8393020552454722e+00 -8.1392128773892802e-01 4.8585367367874255e-01 -3 0 2
48 2 1.2978978006684812e+01 6.2435997248012702e+00 7.1739801060836612e+00 -3 0 0
117 2 -3.0154451019532535e+00 4.2497913222170789e+00 1.3072160968733394e+01 -4 0 -5
931 1 -1.8070256975176231e+00 2.0248737088451962e+00 1.5118567821582792e+01 -2 0 -1
253 1 1.2444196234403545e+01 9.6808529045406448e+00 1.3632221623905071e+01 -3 0 -3
385 1 6.7259999955466014e+00 7.7123327935940047e+00 5.9990922703891565e+00 0 0 -2
540 2 4.9392191619241577e-02 -3.1643443486453049e-01 2.5084807140569056e+00 -4 0 -3
961 1 9.5516425749171496e-01 -3.4795690358811693e-01 1.4745793121171172e+01 -3 0 -1
42 2 9.6495368297312414e+00 5.0033967313218106e+00 8.0684684709524781e+00 -2 0 3
726 2 -1.4899780526756590e+00 3.7311464968020029e+00 9.5456921783380189e+00 2 0 1
876 2 -2.7373704851526508e+00 8.0760868834943196e+00 1.6488028430983782e+01 -2 0 1
769 1 -3.0054886273497949e-02 5.7609877958707623e+00 1.5717434443396058e+01 1 0 -3
1002 2 1.1882463645418616e+01 3.8350387616760448e+00 5.6613296853955930e+00 -1 0 1
494 2 1.9451278810240611e+00 8.5261588626966791e+00 1.2967290099567919e+01 -3 0 -2
685 1 1.6704263650516586e+00 -6.4544967855693536e-01 9.5001202149829975e+00 -3 0 1
41 2 1.0273992545696620e+01 4.3070826232230095e+00 6.8421074979257197e+00 -2 0 3
176 2 4.1199208574643107e+00 -3.3380151048441853e-01 1.3933860583837854e+01 -5 0 1
812 2 1.3668305112783361e+01 2.5365675126842326e+00 1.1697994667930329e+01 -2 0 -1
932 2 -1.8754952050590425e+00 2.9733776804588246e+00 1.5174213565604553e+01 -2 0 -1
747 2 -5.6731098678619629e+00 9.5787926268595687e+00 1.7866417270075019e+01 -2 0 0
213 2 -2.7986629353101122e-01 4.4782938692433021e+00 7.2376767474406716e+00 -4 0 -2
621 2 -2.1866714254142758e+00 6.6110382123483999e+00 1.8502498491243596e+01 -3 0 -1
334 1 9.4091546837863902e+00 7.8165105516671289e+00 7.2473436371024533e+00 -2 0 -1
338 2 2.8246617633860138e-01 4.3263653659047403e+00 9.2572905613359135e-01 -1 0 -1
938 2 1.2666680859745977e+01 6.0936704824436285e+00 4.7497549102501031e+00 1 0 1
969 2 2.3928130120648596e+00 6.8367994281082769e+00 9.0558404911786123e+00 -1 0 1
545 2 3.0174552263992140e+00 1.8680479939726640e+00 1.6803345935138609e+01 2 0 1
386 2 5.7543024146426021e+00 7.6297183903164445e+00 6.1085469635662504e+00 0 0 -2
937 1 1.2881713572954116e+01 5.3833439634278459e+00 5.3551094113860502e+00 1 0 2
40 1 9.4479242838558868e+00 4.7603576628333997e+00 7.1801198099632009e+00 -2 0 3
786 2 -4.6918269517940452e+00 5.6476264525170272e-01 1.8376657632418155e+01 -3 0 -3
275 2 1.4143871995711152e+01 -3.1699033024054746e-01 1.0871489623721568e-01 2 0 0
724 1 -1.3185015339216277e+00 3.7735551144928836e+00 1.0462116619767222e+01 2 0 1
784 1 1.6351084941521250e+00 1.1449680415089496e+00 2.2383877118780777e-02 -3 0 -2
967 1 1.5089033809495103e+00 6.9945376632269678e+00 8.7381080598437233e+00 -1 0 1
553 1 9.9169057992235903e+00 3.0903717472021262e+00 1.6211598201208787e+01 -5 0 -2
681 2 6.7140689617292963e+00 2.3964487998489399e+00 1.7613921210082278e+01 -3 0 -3
649 1 8.8785397087648654e+00 1.4824831831409573e+00 5.2070275718187053e+00 -4 0 0
650 2 8.3136546210768891e+00 2.2015964051937011e+00 5.5622889432918070e+00 -4 0 0
51 2 1.3770625753695326e+01 3.1952135862635824e+00 8.2403518497121588e+00 -1 0 0
36 2 1.5812566037926914e+01 1.5262866870814529e-01 3.2705809782416613e+00 -2 0 0
945 2 4.7100672113118920e+00 3.1822728033256116e+00 5.0304256205586366e+00 0 0 3
673 1 -6.1047975899391824e+00 6.6715714269521609e+00 1.8197680315756820e+01 0 0 -4
939 2 1.3855609634977510e+01 5.2738112725302466e+00 5.4609950438516952e+00 1 0 1
397 1 1.4908847533180275e+01 6.4007777807278528e+00 1.6968536578905193e+00 2 0 0
127 1 1.5357553754114377e+01 5.0632345474378182e+00 5.4527625318410768e+00 -2 0 -1
128 2 -1.9007329411201348e+00 5.0806287796206604e+00 6.1329230113781081e+00 -1 0 -1
1407 2 1.5068508602737555e+01 6.0799816912531890e+00 7.6650080720677383e-01 2 0 0
353 2 9.0619137074484986e+00 9.8951994010915136e+00 9.9912379976019707e+00 -1 0 1
928 1 -1.8849767674474418e+00 1.4895165658038119e+00 5.9423164854729711e+00 1 0 0
777 2 9.1795367465100384e+00 5.1032248393111668e-01 8.6578009062220185e-01 -2 0 2
152 2 1.1944567486556130e+01 3.8387547302294154e+00 4.7146793274607890e-01 3 0 0
439 1 -2.4860164917293543e+00 4.6142703700331271e+00 1.4982091772419698e+01 -2 0 -2
369 2 5.9799624766796837e+00 7.2001690139469705e+00 1.7210343455812851e+01 -2 0 -1
1994 2 1.1324735976809011e+01 9.9337976836731752e+00 3.3898305741756068e-01 -2 0 -2
467 2 2.5360773886831343e+00 9.4301944972501932e+00 1.1022527412880743e+01 -1 0 2
783 2 -6.1102222006412088e+00 2.3460333146166708e+00 1.8542154472843205e+01 -2 0 -3
703 1 6.6163160261264258e+00 1.0386263730178213e+01 1.3835590898264081e+00 -2 0 0
994 1 1.0992628673899096e+01 5.6944166133552692e+00 9.4143867459683275e+00 3 0 1
725 2 -8.1998612091426715e-01 4.5992494860713036e+00 1.0614200919784865e+01 2 0 1
160 1 4.3037283118367915e+00 2.5058119177495257e+00 1.3640137164112952e+01 1 0 -5
129 2 1.5843431559119800e+01 4.7345920144359681e+00 4.6388527230541596e+00 -2 0 -1
6 2 6.2811722757394897e+00 9.9772207666284718e+00 4.7867276079700192e+00 1 0 0
173 2 9.6565871277957207e+00 5.3472104260744020e+00 1.3099547973765882e+01 -1 0 -2
344 2 1.1534402632398931e+01 -1.2141345930941454e+00 1.5036310504528668e+01 -2 0 1
186 2 -1.9630376684900428e+00 -1.3860799860956343e+00 1.8848436504089545e+01 -4 0 -6
925 1 1.3369133810534937e+01 -7.9542594035839886e-01 1.2839905755387754e+01 1 0 2
462 2 1.1391335205191577e+01 4.0598692332491835e+00 9.2069647604106084e+00 -4 0 -2
651 2 8.3792419925301562e+00 6.0409886156763570e-01 5.2767968451531990e+00 -5 0 0
996 2 1.1603772055702240e+01 6.2492487654466107e+00 8.9185698900938846e+00 3 0 1
611 2 1.2053996152970119e+00 1.7944799947212040e+00 7.4581163288321628e+00 0 0 2
1665 2 5.2798554007472180e+00 9.3333771394154450e+00 1.7328051237929362e+01 -3 1 -1
1664 2 5.4538924658194876e+00 8.8530639089479610e+00 1.5855434444149473e+01 -3 1 -1
749 2 4.5667563474388224e+00 8.6403977313646649e+00 9.6074337093702873e+00 -3 0 1
102 2 4.0873846112205925e+00 4.4181865311108730e+00 6.5561865658082112e+00 -1 0 -1
497 2 6.2419076972959209e+00 5.1966392659848126e-01 7.6253084319192288e+00 0 0 1
498 2 5.3157408203102579e+00 1.6847973132753329e+00 7.1866822718328569e+00 0 0 1
395 2 1.1865082203703578e+01 5.6830974742311477e+00 1.2939380484765886e+00 -3 0 -3
590 2 -2.4141036582898563e+00 9.1424753312394245e+00 1.2137464298240973e+01 -4 0 -1
349 1 1.1956227877832626e+01 1.2586152759920832e+00 1.9564724915131693e+00 2 0 4
679 1 6.2848951341159616e+00 1.6510422223136838e+00 1.7163364650250085e+01 -3 0 -3
398 2 1.3955036629443221e+01 6.6466086923884333e+00 1.7612231454680067e+00 2 0 0
745 1 -6.2144504688349018e+00 9.4438944353747569e+00 1.8724851305574898e+01 -2 0 0
919 1 1.0382116221360306e+01 -5.4512036097654071e-01 9.6326668362122376e+00 0 0 -2
710 2 4.1997615937807353e+00 8.5217037887259011e+00 1.3728172947172741e+01 -3 0 -2
943 1 5.1873361106220699e+00 3.3075323130917065e+00 5.9214025305700773e+00 0 0 3
296 2 3.1163979920255285e+00 7.9686164518402389e+00 4.5515865114654437e+00 2 0 3
538 1 8.8471169535839644e-01 9.7955984602900337e-02 2.2279678010962822e+00 -4 0 -3
220 1 8.5088252527858543e+00 6.4430024007282141e+00 4.5380176076273271e-01 -2 0 -2
172 1 8.9173022740377483e+00 4.9662569418649776e+00 1.2647635222700700e+01 -1 0 -2
298 1 1.2281321336571155e+01 3.7206198364732357e+00 1.5167747309683346e+01 -3 0 -2
680 2 5.3302414197517063e+00 1.8960593172855811e+00 1.7240130600793883e+01 -3 0 -3
746 2 1.1182390810996843e+01 1.0295144147659871e+01 1.8750531118588405e+01 -3 0 0
466 1 2.0122503647761034e+00 9.8631134246740242e+00 1.0263051730848751e+01 -1 0 2
944 2 6.0985579294824497e+00 3.6169531414710896e+00 5.7980259764018269e+00 0 0 3
100 1 3.3585314512128983e+00 4.9342682608814075e+00 6.9768928500289249e+00 -1 0 -1
1667 2 5.9880729006995139e+00 5.1826669917561912e+00 1.1601235050851825e+01 -1 1 -2
277 1 7.7639766697708685e+00 8.8051812752166434e+00 9.4936528612809887e+00 -4 0 -1
174 2 9.0879969084027135e+00 4.0146731136922424e+00 1.2631046067097026e+01 -1 0 -2
388 1 1.3290092444780820e+01 -4.7641709192001724e-01 4.7133139244115529e+00 -1 0 0
529 1 7.1993889607765400e+00 -1.1460703968076058e+00 3.4760283525031062e+00 -1 0 0
687 2 2.6309349911438478e+00 -5.9012475702737677e-01 9.6801286854127753e+00 -3 0 0
460 1 1.1907816318508445e+01 3.2275605208804805e+00 9.1300490256056115e+00 -4 0 -2
607 1 5.3465854268763495e+00 1.3506825380936940e+00 2.0275248818813196e+00 -3 0 0
290 2 1.3393488581725354e+01 5.3748003132293887e+00 1.1678008159766060e+01 0 0 3
829 1 4.1608367417585592e+00 9.0966368482749154e+00 1.2304539013077138e+00 -3 0 0
950 2 -4.4137531489679027e+00 3.5001358293804619e-01 1.6110599954639500e+01 -1 0 1
595 1 3.9435001126993874e+00 7.7033246814525196e+00 6.1950240167261112e+00 3 0 -2
528 2 4.8070023846129795e+00 5.1795127599928859e-01 3.5379719904034994e+00 -2 0 -1
109 1 1.9474069477683527e+00 2.1274854470112303e+00 1.5065752304086757e+01 1 0 -4
615 2 3.1306935359210053e+00 5.2260974551744344e+00 1.6824798736110584e+01 -2 0 -1
289 1 1.2930228421181701e+01 6.2353922100987873e+00 1.1610661014042080e+01 0 0 3
461 2 1.1245483543142726e+01 2.6465292839832566e+00 8.7098100495423871e+00 -4 0 -2
599 2 -9.5310808311738615e-01 2.5595702330334538e+00 1.1837926891613657e+01 -3 0 1
408 2 -1.7927594360684622e+00 6.1810039627226021e-01 9.9693842804757722e+00 -2 0 -2
846 2 7.2771290859490998e+00 5.7101773643550224e-01 1.2177677721317240e+01 1 0 1
182 2 1.6382606557244827e+01 3.2565366079773570e+00 2.3450237589322467e+00 -1 0 0
513 2 7.7976931993528016e+00 -2.9637883171478685e-01 1.6296929330224767e+01 1 0 0
216 2 -9.5377403863853527e-01 8.2517492449302452e+00 2.8168764170961498e+00 0 0 -2
709 1 4.9421944431416209e+00 8.9016591998079857e+00 1.4193934651256114e+01 -3 0 -2
475 1 6.2165151581972822e+00 5.7429781739280168e+00 8.2015009621684474e+00 -1 0 2
77 2 4.1335618609569602e-01 9.3877496615668647e+00 9.6629742102438421e+00 -2 0 -3
526 1 4.5754438504544552e+00 1.6244792768673788e-01 4.3954635813525806e+00 -2 0 0
133 1 -2.7013252563328738e-01 6.2110971604630629e+00 1.0556177978158200e+01 1 0 -1
610 1 9.7797431948988134e-01 1.6241558198093204e+00 8.3464919077845039e+00 0 0 2
675 2 -6.2758796288666527e+00 6.2639528299106182e+00 1.8995365307842608e+01 0 0 -4
589 1 -1.7215083043968797e+00 9.7553633921179514e+00 1.1988865550823249e+01 -4 0 -1
300 2 1.2717304140290798e+01 3.0179334944079725e+00 1.4718551027114827e+01 -3 0 -2
214 1 1.6413802430188824e+01 7.6483339688023406e+00 3.3366746279785362e+00 -1 0 -2
782 2 1.0889758777512110e+01 3.3327015087628284e+00 1.7713991016727409e+01 -3 0 -3
690 2 1.7892928191131667e+00 4.4601362970113945e+00 6.4233749339935589e+00 -2 0 0
904 1 1.2388033093084335e+01 9.7460292915281208e+00 4.4470494172999384e+00 -3 0 2
728 2 1.0000836890413108e+01 8.0823161840265456e+00 1.2237769225757289e+01 0 0 1
113 2 9.4417671187351395e+00 1.6166914835694310e+00 1.2364644317750059e+01 -2 0 -1
670 1 -1.2117875546654273e+00 -8.6630755878894483e-01 7.1063903109828193e+00 -3 0 -1
993 2 1.3515425872349841e+01 1.5470515595628820e-01 9.8551843059405968e+00 1 0 1
222 2 8.0091058300524658e+00 5.7607011955206069e+00 1.0141225636890046e+00 -2 0 -2
335 2 1.0332121277458484e+01 8.2183510476266992e+00 7.3843947156688525e+00 -2 0 -2
67 1 8.5884078358796998e+00 9.0976582367950787e+00 1.7220151472216241e+01 -4 0 -3
727 1 9.2422695095046841e+00 8.4322937229243387e+00 1.2751797656966371e+01 0 0 1
114 2 8.4011345780015390e+00 1.9107505279050478e+00 1.3483190803526968e+01 -2 0 -1
425 2 1.3740012227615811e+01 4.0207519019296676e+00 2.2834251503367073e+00 -2 0 1
544 1 3.5604345720820243e+00 1.3604150721061856e+00 1.7453885130980552e+01 2 0 1
875 2 -2.7834179922839950e+00 8.0444761226618393e+00 1.5007176472472301e+01 -2 0 1
1001 2 1.0779661982955769e+01 2.8951352830168524e+00 5.1871433132327081e+00 -1 0 1
496 1 5.5226714134395207e+00 1.0904223511361928e+00 7.9226985004648700e+00 0 0 1
291 2 1.2222480226342523e+01 6.1190692294931184e+00 1.0945059907284818e+01 0 0 3
337 1 2.8519666079767547e-01 5.0616872648815967e+00 1.5103687118127971e+00 -1 0 -1
760 1 7.8057403460995589e+00 -7.4340120887524952e-01 7.6804607078901665e-01 -3 0 2
221 2 2.3255041374979033e+00 5.8720051635552561e+00 1.8859532219000332e+01 -2 0 -3
977 2 4.1170662664275390e+00 8.1242444319207463e-02 1.6718621217217358e+01 -3 0 -1
20 2 1.2430265124507990e+01 8.2256150285256524e+00 7.8568033895895821e+00 -3 0 -3
433 1 1.1513248766651596e+01 8.6208052600680265e+00 1.1216132327160237e+01 -2 0 0
641 2 1.0346696714085608e+00 7.2383164525900145e+00 1.8342526568904326e+01 4 0 -1
110 2 1.6067907935678747e+00 1.1692810465375998e+00 1.5032367927853208e+01 1 0 -4
389 2 1.3648887684495921e+01 2.7674332450471040e-01 4.1360932037378548e+00 -1 0 0
47 2 1.4128948937928667e+01 6.6020049167776875e+00 8.1581390999632806e+00 -3 0 0
207 2 5.2161311374957755e+00 2.4847150306142893e+00 1.0867792181354465e+01 3 0 0
808 1 8.5221687416608418e+00 6.2871866481079692e+00 1.0314728457277610e+01 -4 0 -1
278 2 6.8184896591992601e+00 9.1094984087083581e+00 9.3429212863320092e+00 -4 0 -1
577 1 6.6016945618963998e+00 3.4903586425400794e+00 1.1291688654910228e+01 0 0 0
76 1 -5.4707563253462155e-01 9.4271156342881142e+00 9.5789126978439683e+00 -2 0 -3
1000 1 1.1298418020552251e+01 3.1173701506202516e+00 5.9036290854468279e+00 -1 0 1
294 2 3.1585547855357543e-01 5.6883771965279735e+00 1.2398622307080014e+01 1 0 -3
951 2 -3.4003185362018544e+00 -4.4126204767657995e-01 1.6953748570357906e+01 -1 0 1
297 2 2.0474055517212713e+00 8.4176163875396490e+00 3.6118382560264970e+00 2 0 3
521 2 9.8840850598729979e+00 1.6771413044265731e+00 6.9759645992597132e+00 -5 0 -2
813 2 1.2662514309695846e+01 2.4086607393582486e+00 1.0440506459657405e+01 -2 0 -1
843 2 -1.2108376400694896e+00 -7.0705092193809072e-01 1.5455908532779308e+01 -5 0 -5
845 2 5.8000206661192006e+00 -6.3708135756554540e-02 1.2278665158482434e+01 1 0 1
435 2 1.1003826063348612e+01 9.3544434593561441e+00 1.0756160883608841e+01 -2 0 0
771 2 5.9144615745796347e-01 5.7888292976117297e+00 1.4960310890439333e+01 1 0 -3
161 2 4.1035194121305638e+00 3.4396006584384970e+00 1.3439944959147448e+01 1 0 -5
809 2 8.4149028394541006e+00 7.2428495030862052e+00 1.0473485839221382e+01 -4 0 -1
866 2 1.0775134201771166e+01 7.4283936469686775e+00 3.1920590693268860e+00 -3 0 0
94 1 4.1729721845982115e-01 6.9173581535765827e+00 5.1637564717551205e+00 -1 0 -1
225 2 7.1915683439520546e+00 4.0840972554436465e+00 2.0540144140082912e+00 -2 0 -1
770 2 2.9499696553147459e-01 6.4561744286890734e+00 1.6400075107101621e+01 1 0 -3
123 2 9.8883802887452532e+00 8.1649987874840697e+00 1.6111526614808135e+01 -2 0 -1
440 2 -3.1536347049346940e+00 4.8636556668634601e+00 1.5635406744991720e+01 -2 0 -2
383 2 1.1289066047199399e+00 1.7540472889367389e+00 3.0391773717538206e+00 -1 0 1
250 1 7.0839379747257336e-01 9.7353465039427256e+00 1.3272247032188792e+01 -3 0 2
499 1 1.7049322825677207e+00 7.6382752375135210e-01 1.2261477532567758e+01 1 0 1
910 1 1.2837356006275007e+01 1.1727455192127194e+00 6.9897676304422305e+00 -2 0 1
546 2 3.1102809972388643e+00 1.5796173471979653e+00 1.8348765116651020e+01 2 0 1
655 1 5.9261179770997581e+00 8.9083883366990992e+00 1.6690359542490700e+01 -3 0 -1
729 2 9.4371580684736589e+00 8.1905708195415130e+00 1.3644207703098537e+01 0 0 1
612 2 7.9299539547705855e-03 1.4757592220360802e+00 8.5201069388389623e+00 0 0 1
674 2 -6.3008812116533104e+00 7.6411038077806150e+00 1.8358336079764186e+01 0 0 -4
121 1 1.0346700007411759e+01 8.1786142701489410e+00 1.5297993749075539e+01 -2 0 -1
911 2 1.3056646099266231e+01 7.0334731808702022e-01 6.1875587268092840e+00 -2 0 1
424 1 1.3230905328537775e+01 3.4522989282880410e+00 2.8895686654700734e+00 -2 0 1
811 1 1.3168340519009542e+01 1.8790627236628228e+00 1.1097332453899140e+01 -2 0 -1