LAMMPS data file via write_data, version 3 Mar 2020, timestep = 1000000

1008 atoms
2 atom types

2.6228457448655718e-01 1.8137270425510717e+01 xlo xhi
5.9217402746106984e-02 2.2511171597249067e+01 ylo yhi
2.4094285258981074e-01 1.9264773147404036e+01 zlo zhi
4.5874614868424458e-02 -6.6556422299640632e+00 1.0798048039775328e-02 xy xz yz

Masses

1 16
2 2

Atoms # atomic

1 1 6.4873880105073640e+00 1.1909874988058291e+00 4.6934195464199364e+00 0 0 0
306 2 1.3576400370415893e+01 1.1031747496161792e+01 2.9931719249580442e+00 0 0 0
3 2 6.4738780237403715e+00 1.6992550741731911e+00 3.8492195590778118e+00 0 0 0
4 1 3.9372806928179513e+00 1.0851495369722657e+00 5.0885568120879920e+00 0 0 0
5 2 4.8285650509218936e+00 9.0084302162270136e-01 4.8044817718152775e+00 0 0 0
6 2 4.0166599697977690e+00 1.3963648130844593e+00 6.0013747450797208e+00 0 0 0
7 1 -4.8271035152869024e-01 6.4226445701314168e+00 4.9925847354986237e+00 0 0 0
8 2 -4.9842709994743251e-01 6.0755441680519766e+00 5.9115355021826144e+00 0 0 0
9 2 -1.1606626827431228e+00 7.1416313885713247e+00 5.0098271491004622e+00 0 0 0
10 1 2.3018294381089994e+00 6.6775975336629294e+00 4.8741212772975366e+00 0 0 0
11 2 1.3216402694299700e+00 6.8133792042568615e+00 4.8684205720077633e+00 0 0 0
12 2 2.7442606205832294e+00 7.5275377082853030e+00 5.0162141760055690e+00 0 0 0
302 2 1.4874320066881172e+01 1.0560453241940261e+01 6.5593626355715955e+00 0 0 0
14 2 4.9829795762667830e+00 5.4366636086791251e+00 8.8320394093568453e+00 0 0 0
604 1 1.1276209808686962e+01 4.7014470737914928e+00 9.4877236574284822e+00 0 0 0
309 2 7.6956232540130634e+00 1.1245116038094139e+01 2.9902896216521246e+00 0 0 0
18 2 5.5285994785088084e+00 5.0813042198207370e+00 1.0830865037660442e+00 0 0 0
290 2 1.5933048810126071e+01 1.0645583693766165e+01 2.8042792186106764e+00 0 0 0
70 1 4.1980706537465684e+00 5.2192600458706173e-01 1.7991714360536970e+00 0 0 0
21 2 1.1163167148393458e+00 2.2808544884645734e+00 1.2828005303443568e+00 0 0 0
99 2 1.3125319874215032e+01 4.4255048226213711e+00 9.1501079799554397e+00 0 0 0
311 2 1.1042297570013231e+01 1.0908471291413758e+01 5.9227865538171471e+00 0 0 0
254 2 1.5792221493536729e+01 9.2590057034900450e+00 5.0976166888176406e+00 0 0 0
25 1 4.7835647628905171e+00 6.1797121727012563e+00 7.2076285131087463e+00 0 0 0
26 2 5.3759699238973884e+00 6.9466651158682522e+00 7.2652136948754986e+00 0 0 0
27 2 3.8606295713454424e+00 6.4263603044713706e+00 7.4353823783234745e+00 0 0 0
28 1 5.6540626183033540e+00 6.1538050985976556e+00 2.5935128018183007e+00 0 0 0
29 2 5.5447884013498125e+00 5.6391357344563788e+00 3.4442071758161368e+00 0 0 0
30 2 4.9663847325455732e+00 6.8799949018616235e+00 2.5887926421871543e+00 0 0 0
31 1 1.7667942285032343e+00 1.1663026655340578e+00 2.8037737375764284e+00 0 0 0
32 2 2.7261508281731577e+00 8.6414909134810680e-01 2.7033535682116141e+00 0 0 0
33 2 1.6421888275154459e+00 1.4250121899254555e+00 3.7081923397805130e+00 0 0 0
34 1 1.5252397495660386e-01 1.2576273354123171e+00 7.3381083366783360e+00 0 0 0
271 1 9.8311072249762663e+00 1.0368631722125725e+01 3.0857863658582735e-01 0 0 0
36 2 2.9245785839213756e-01 1.8912157934963956e+00 8.1163800617661863e+00 0 0 0
37 1 6.4438482174778695e+00 2.7994568896133805e+00 2.5165298819731134e+00 0 0 0
38 2 5.4972308697149677e+00 3.0744247283811443e+00 2.6984250135428391e+00 0 0 0
39 2 6.9708823432173661e+00 3.5989699123887120e+00 2.6306357289092421e+00 0 0 0
40 1 4.1343366252208789e+00 2.5973410177813188e+00 7.3836953398303597e+00 0 0 0
41 2 4.9783358333089121e+00 3.0242972460508648e+00 7.1656626165922255e+00 0 0 0
42 2 3.4239045177290071e+00 3.2256356322583173e+00 7.3632456572160052e+00 0 0 0
43 1 -2.8172554802962280e-01 5.0402377498038051e+00 7.2586019435766129e+00 0 0 0
44 2 -7.9811081889446522e-01 4.2656180175961866e+00 7.0915099578474594e+00 0 0 0
45 2 -3.8321888659043690e-01 5.3959442361867369e+00 8.1798435804305427e+00 0 0 0
46 1 1.9763812675843155e+00 5.0280948580623992e+00 2.5485342739093624e+00 0 0 0
47 2 1.0919397322189761e+00 4.7621284872599343e+00 2.7937217911815573e+00 0 0 0
48 2 2.3483755253257828e+00 5.6144929729377164e+00 3.2861206815604165e+00 0 0 0
49 1 6.7930892755122523e+00 3.0728679336782281e+00 6.4741209740339567e+00 0 0 0
50 2 6.4472559429731460e+00 3.7496743746237211e+00 5.8476708771059149e+00 0 0 0
51 2 6.6528592317761399e+00 2.2615629813502922e+00 5.9683872349032416e+00 0 0 0
52 1 3.8217093294655684e+00 3.2253744914850540e+00 3.2770384390613367e+00 0 0 0
53 2 3.0371116348424012e+00 3.7841069569388912e+00 3.0311443403158784e+00 0 0 0
54 2 3.5025685636478361e+00 2.4156726784414166e+00 3.6920538318742424e+00 0 0 0
55 1 -4.0257440123116750e-01 4.0831080675708504e+00 3.6370894038542905e+00 0 0 0
56 2 -5.5655018805093581e-01 4.9110476200490387e+00 4.1356884310880826e+00 0 0 0
57 2 9.9960890761552790e-02 3.4488553285805232e+00 4.1754960062902029e+00 0 0 0
58 1 2.0773689592660052e+00 4.2694458676662865e+00 6.3590301774582487e+00 0 0 0
59 2 2.2262654635219570e+00 5.1189319722525051e+00 5.8900530027817437e+00 0 0 0
60 2 1.3308231757886753e+00 4.4129734737796973e+00 6.9720723094142256e+00 0 0 0
61 1 8.1498331193552538e+00 6.9592865007196636e+00 1.5228144436115618e+00 0 0 0
62 2 7.4034428551544167e+00 6.6210502195291712e+00 2.0809015308797663e+00 0 0 0
63 2 8.4467828933825206e+00 6.2369931229325646e+00 8.9064882158251568e-01 0 0 0
64 1 2.4612020894276090e+00 6.7841172435502282e+00 8.2253308732185300e+00 0 0 0
65 2 1.6022778768349664e+00 7.0942322464217078e+00 7.8938699568816357e+00 0 0 0
66 2 2.7555337094750549e+00 7.5679327867678730e+00 8.8628245989508887e+00 0 0 0
13 1 4.8984357381563441e+00 5.0087065401639066e+00 9.7215145639751821e+00 0 0 0
68 2 -2.1005604503598745e+00 1.3026671928938434e+00 8.8923861031120346e+00 0 0 0
667 1 1.2415259589450445e+01 1.4789004715848748e+00 9.7014844805833054e+00 0 0 0
72 2 4.2297552016333873e+00 1.3211325223929387e+00 1.1988978074323289e+00 0 0 0
73 1 5.3500389121294134e+00 4.7621346823741391e+00 4.8419341146849755e+00 0 0 0
74 2 5.0831023080422888e+00 5.2599095534517648e+00 5.6797856313443518e+00 0 0 0
75 2 4.5129756241918759e+00 4.2535560279328477e+00 4.5702490888979206e+00 0 0 0
76 1 8.9608473131556154e-01 2.3368072532833737e+00 5.0649910207939390e+00 0 0 0
77 2 5.8416163632293894e-01 1.9008192050583326e+00 5.8883082248322340e+00 0 0 0
78 2 1.4193168042571116e+00 3.0807573226792413e+00 5.4222539359954567e+00 0 0 0
80 2 6.6185701852780694e+00 2.0833172582532113e+00 7.2265918918559402e-01 0 0 0
20 2 3.1831828851240790e-01 3.3028308499963805e+00 3.9165071541543561e-01 0 0 0
293 2 1.2622596445194237e+01 1.0726150681831378e+01 7.0420402550268895e+00 0 0 0
85 1 1.5343420200187108e+01 1.0361856897954898e+00 5.0321031273975665e+00 0 0 0
87 2 1.5433950716472083e+01 1.2774704786631512e+00 4.0655346940374315e+00 0 0 0
88 1 1.2749763322775625e+01 1.1148446526229947e+00 5.1930359249166544e+00 0 0 0
89 2 1.2708562420898838e+01 1.6107270430700180e+00 4.3437354196557161e+00 0 0 0
90 2 1.3648136730588011e+01 6.8887584888489450e-01 5.1630743170261262e+00 0 0 0
91 1 8.0301465213727710e+00 6.4043574031432771e+00 5.1608546553214465e+00 0 0 0
92 2 8.0132921489642168e+00 5.6433969686436303e+00 4.5472707592678416e+00 0 0 0
93 2 8.9871235887823513e+00 6.6689768232172089e+00 5.2307037877000653e+00 0 0 0
94 1 1.0928398504493183e+01 6.3721791481892014e+00 4.8606412816153330e+00 0 0 0
95 2 1.1470497459046967e+01 7.1677091900901102e+00 5.0530909705063491e+00 0 0 0
96 2 1.1177846348415422e+01 5.6435401930872944e+00 5.4657050338974305e+00 0 0 0
35 2 -6.4587427748370141e-01 7.4911417201874886e-01 7.5784401517420825e+00 0 0 0
156 2 1.2249152561465088e+01 6.3640512519948544e-01 2.2168569726990137e+00 0 0 0
101 2 1.4425190725212680e+01 5.0933731667668471e+00 1.1530034609715547e+00 0 0 0
117 2 9.8963980452673788e+00 3.9617109826718233e-01 2.5823621467358908e+00 0 0 0
219 2 5.8081365696729303e+00 1.0552438023467808e+01 7.1101567665171048e+00 0 0 0
84 2 3.2439582903339130e+00 6.5880181569629253e+00 5.4403197192827113e-01 0 0 0
221 2 4.5016787537989744e+00 1.0616874054707385e+01 3.0744676779082227e+00 0 0 0
109 1 1.3618262301857143e+01 6.4238449354081339e+00 7.0820576819293102e+00 0 0 0
110 2 1.3928261427386147e+01 5.7012189588303386e+00 7.7521863910027706e+00 0 0 0
111 2 1.2891586271310347e+01 6.8687526961559318e+00 7.4732963925107398e+00 0 0 0
112 1 1.4463754038060706e+01 6.3044371715734311e+00 2.3677885968460339e+00 0 0 0
113 2 1.3814103623395669e+01 7.0614511705888141e+00 2.2722574015588610e+00 0 0 0
114 2 1.5403990648298109e+01 6.6831975006113682e+00 2.3582148432541179e+00 0 0 0
115 1 1.0540832384521615e+01 1.1167967309836087e+00 2.6247712948583914e+00 0 0 0
116 2 1.0332401213209964e+01 1.7897918951947682e+00 1.9732728464980500e+00 0 0 0
151 1 6.6867558445153126e+00 7.4391386408536431e-01 7.9697267353591705e+00 0 0 0
118 1 9.3939428252640180e+00 1.2992862985600229e+00 7.3663833568344579e+00 0 0 0
119 2 9.6667542143247189e+00 1.9084548461083275e+00 8.1077183821160830e+00 0 0 0
120 2 9.4966007786906417e+00 1.7750502538327066e+00 6.5219429411134930e+00 0 0 0
121 1 1.5567437470765029e+01 2.3853391614696551e+00 2.6002195590382264e+00 0 0 0
122 2 1.6351143312424686e+01 2.9127953448748500e+00 2.6643220010897704e+00 0 0 0
123 2 1.5626901923452930e+01 1.8630274500354622e+00 1.7838270557259803e+00 0 0 0
124 1 1.3221436313683126e+01 2.8563172705388862e+00 7.3226152229545987e+00 0 0 0
125 2 1.4214265602025387e+01 2.9132785900581322e+00 7.2463748430332764e+00 0 0 0
126 2 1.3040376391980265e+01 2.1266410770286890e+00 6.7072795424398590e+00 0 0 0
127 1 8.5327870321431938e+00 4.9392177860166520e+00 7.3809005212089414e+00 0 0 0
128 2 7.7857964149437198e+00 4.2348977569958883e+00 7.1867639917657025e+00 0 0 0
129 2 8.3947237092598783e+00 5.5225272765355635e+00 6.5986277669638538e+00 0 0 0
130 1 1.0987427376081421e+01 4.9118497800905585e+00 2.4744000620178999e+00 0 0 0
131 2 1.1584986562031672e+01 4.2034675980779905e+00 2.7005627474145411e+00 0 0 0
132 2 1.1101187880999113e+01 5.5030508880952747e+00 3.2572516986638340e+00 0 0 0
134 2 1.5401794751052364e+01 4.1366530755320063e+00 5.7051979117706377e+00 0 0 0
136 1 1.2946794460046796e+01 3.0227917683120764e+00 3.3001273301770611e+00 0 0 0
137 2 1.3072029265362184e+01 3.8548573321662705e+00 3.7149363354580491e+00 0 0 0
138 2 1.3774475755618962e+01 2.8685584779828992e+00 2.8061405135423025e+00 0 0 0
139 1 8.4053632024124063e+00 4.2988890754660538e+00 3.5125289604015961e+00 0 0 0
140 2 9.1990515071987460e+00 4.5644658046436843e+00 2.9808875776116541e+00 0 0 0
141 2 8.6685052826695426e+00 3.5060258581670509e+00 4.0645933887537087e+00 0 0 0
142 1 1.1113196857889605e+01 4.1534422633336252e+00 6.3845545037373119e+00 0 0 0
143 2 1.1919982409181971e+01 3.8708142900312583e+00 6.8715536463434352e+00 0 0 0
144 2 1.0290003250591091e+01 4.2377716568131305e+00 6.9002508509743770e+00 0 0 0
147 2 1.6806539155490889e+01 7.9122742201134404e+00 1.2849471369211409e+00 0 0 0
148 1 1.0986352277921331e+01 6.9828447787480821e+00 8.1010038345360087e+00 0 0 0
149 2 1.0984948779158339e+01 6.0372244541974496e+00 8.4066464527623683e+00 0 0 0
150 2 1.1152315815627878e+01 7.5775353045562088e+00 8.8865431769627712e+00 0 0 0
22 1 4.4007681170808821e-01 2.3769556680054711e+00 9.6455085383889951e+00 0 0 0
584 2 2.9073744225381715e+00 9.6562397208285733e-01 9.4094823489059571e+00 0 0 0
153 2 6.4654936302497408e+00 1.4890734647204211e+00 8.5961565032762568e+00 0 0 0
165 2 1.6852527835875026e+01 6.5784329094962313e-01 5.8154246954376121e-01 0 0 0
155 2 1.2959098354377275e+01 1.2417736247598858e+00 1.0486118173994772e+00 0 0 0
399 2 7.6645999546261088e+00 4.0573233498991612e-01 1.3857147393874187e+00 0 0 0
157 1 1.4097741780572150e+01 5.2628273737502500e+00 4.6905195187337938e+00 0 0 0
158 2 1.4286393113364909e+01 5.6307212639513242e+00 3.7237622591861141e+00 0 0 0
159 2 1.3982926109177285e+01 5.8666047781173711e+00 5.3936140374517016e+00 0 0 0
160 1 9.6335462079751935e+00 2.4392800053404256e+00 4.8756727270077844e+00 0 0 0
161 2 1.0306698669460726e+01 3.1507586175037483e+00 5.1556751188324768e+00 0 0 0
162 2 1.0028644875814377e+01 1.8807355634232168e+00 4.1541891485047380e+00 0 0 0
301 1 1.5654411912934329e+01 1.0828261369309740e+01 6.0226191171280448e+00 0 0 0
836 2 1.2943547485231727e+01 9.1931393709126734e+00 8.8981040889937724e+00 0 0 0
167 2 1.1110877894298577e+01 5.7324115840071013e+00 7.8192838347337423e-01 0 0 0
169 1 6.4294333093144429e+00 8.4168056711111738e+00 4.8276624931142553e+00 0 0 0
170 2 7.0620442745511021e+00 7.6194675027556480e+00 4.8647140318093536e+00 0 0 0
171 2 6.7894034742561864e+00 9.1323089197216571e+00 5.3817541232902837e+00 0 0 0
172 1 3.7805176021963067e+00 8.8424078706071612e+00 5.4728123125808343e+00 0 0 0
173 2 3.8136912024596685e+00 9.6384474910781712e+00 4.8411432131706675e+00 0 0 0
174 2 4.5987382642099606e+00 8.3818205260671590e+00 5.4169664193335070e+00 0 0 0
217 1 6.5359417680690246e+00 1.0832339793257974e+01 6.5418723832730761e+00 0 0 0
97 1 1.4054425900805684e+01 4.6140601202501053e+00 9.3622330968345580e+00 0 0 0
146 2 1.7268921064616379e+01 6.4365624601388935e+00 1.1117550735808286e+00 0 0 0
192 2 5.2100190345736497e-01 9.6835299091349576e+00 8.6134249655260398e+00 0 0 0
199 1 1.4238332817220329e+00 9.0583609874190376e+00 2.5534993148549923e+00 0 0 0
200 2 1.2972068419007226e+00 9.5637334844600694e+00 1.7009107363056479e+00 0 0 0
201 2 7.1753922718779284e-01 8.3688035682410469e+00 2.4349298333300116e+00 0 0 0
202 1 3.0759733149515212e-01 8.5166766852963889e+00 7.4426737265269294e+00 0 0 0
203 2 -6.6467820774005548e-01 8.2643322084484048e+00 7.6414483675901943e+00 0 0 0
204 2 3.5119702629630067e-01 8.6102030012097934e+00 6.4814552705156778e+00 0 0 0
205 1 6.4308176457205981e+00 1.0068038214343394e+01 2.5404343620864562e+00 0 0 0
206 2 6.5197873231130830e+00 9.4414984815880203e+00 3.3251162894107287e+00 0 0 0
207 2 6.6275666255725634e+00 9.5653678917006300e+00 1.7287489062673063e+00 0 0 0
208 1 4.0741244415940319e+00 1.0149767349791896e+01 7.7637152190911545e+00 0 0 0
780 2 1.2698709991891393e+01 9.8464589359997206e+00 7.4466789402296962e-01 0 0 0
210 2 3.8220080802887555e+00 9.5014867001929630e+00 7.1171082054800001e+00 0 0 0
248 2 7.4431041340649671e+00 8.2628891835334866e+00 7.0060879482809935e-01 0 0 0
152 2 7.6178862875442022e+00 8.9964714626111020e-01 7.6759809094544060e+00 0 0 0
521 2 1.7267601169394431e+00 5.1002460078978880e+00 9.3916860352955052e+00 0 0 0
486 2 1.1425191954421685e+01 2.2457477811136636e-01 8.7644945627674726e+00 0 0 0
108 2 8.4731432533003463e+00 3.0590268482817162e+00 9.6789611093018664e+00 0 0 0
235 1 -2.1322485485569835e+00 7.9950657270203269e+00 8.2374090712397088e+00 0 0 0
236 2 -2.3675772287002386e+00 8.8682016776479458e+00 8.5569481981888966e+00 0 0 0
238 1 3.6910849412382873e+00 7.8446949345184045e+00 1.8135958096502438e+00 0 0 0
239 2 2.8633551146027627e+00 8.0227486418348732e+00 2.2577306184379373e+00 0 0 0
240 2 4.0125745051403765e+00 8.6389234274414584e+00 1.4343187920706841e+00 0 0 0
244 1 8.6961009869949946e-01 9.6643827387736589e+00 4.9390155695763989e+00 0 0 0
245 2 1.2126110166767312e+00 9.4394284205367818e+00 3.9946014519368647e+00 0 0 0
246 2 1.4451311292208477e+00 1.0309331480751908e+01 5.3848634904351718e+00 0 0 0
86 2 1.5877980290125102e+01 2.6962519860138479e-01 5.1411003271550699e+00 0 0 0
274 1 9.4971443238794180e+00 1.0185306153142813e+01 9.3183113552871220e+00 0 0 0
253 1 1.5457548512481932e+01 8.4064398429832465e+00 4.8201266259353996e+00 0 0 0
255 2 1.5236168419942427e+01 8.6476203968993044e+00 3.8874166676127264e+00 0 0 0
256 1 1.2666519748170048e+01 8.5144051224486414e+00 5.1023083692468267e+00 0 0 0
257 2 1.3630099419621892e+01 8.3529661358630811e+00 5.1035857354445282e+00 0 0 0
258 2 1.2650514494606988e+01 9.1911200477763657e+00 4.4333376343219379e+00 0 0 0
237 2 1.4936001486503191e+01 7.6095881798602774e+00 7.8294382089715926e+00 0 0 0
272 2 9.6587344281723819e+00 9.8759977242652024e+00 1.1892700210899252e+00 0 0 0
835 1 1.2558344564526889e+01 8.5902614778846758e+00 9.5456241437879932e+00 0 0 0
276 2 9.5008036356651502e+00 9.9265773254957992e+00 8.3527284011086138e+00 0 0 0
283 1 9.9282919589896039e+00 8.5903515679953308e+00 2.3355350233773797e+00 0 0 0
284 2 9.8338374228311949e+00 9.1008908173061762e+00 3.1641280560664735e+00 0 0 0
285 2 9.2365384076979939e+00 7.8607780437580876e+00 2.4203831799470521e+00 0 0 0
286 1 9.1604559178968614e+00 8.7497814925504933e+00 7.0176344968091913e+00 0 0 0
287 2 9.8562085099104788e+00 8.1596988752652866e+00 7.3948633473947938e+00 0 0 0
288 2 8.3641032729758535e+00 8.4413122916238112e+00 7.4350136627062033e+00 0 0 0
289 1 1.5166983746591999e+01 1.0063516204692771e+01 2.6139321222492695e+00 0 0 0
524 2 -2.8590817892157174e+00 3.2807673944589224e+00 9.6599175078434136e+00 0 0 0
291 2 1.5415850554178434e+01 9.7420969058509552e+00 1.7502322284223868e+00 0 0 0
292 1 1.3297731142851996e+01 1.0070138041024402e+01 7.2657316503447893e+00 0 0 0
67 1 -2.0889779933507597e+00 4.2794848859263918e-01 8.4525471788668405e+00 0 0 0
294 2 1.3106288770020342e+01 9.3380384937040422e+00 6.6478832189700707e+00 0 0 0
83 2 2.2341807277380799e+00 5.4135610830900482e+00 8.5043775401402411e-01 0 0 0
19 1 1.0763263739358275e+00 2.7019493485722954e+00 3.4451796267291218e-01 0 0 0
190 1 7.7089006033266916e-01 1.0264188060888497e+01 9.4079418601500979e+00 0 0 0
668 2 1.2815938281776264e+01 1.9461532186899930e+00 8.9590233325114745e+00 0 0 0
319 1 6.8300035821500904e+00 7.8056809827216203e+00 8.2071552138206485e+00 0 0 0
320 2 6.6333572405599508e+00 8.6438765789223702e+00 8.6659778428312890e+00 0 0 0
321 2 7.2609117722374510e+00 7.1957817596387814e+00 8.8939212505154916e+00 0 0 0
322 1 1.2454116290807590e+01 8.0628568632074398e+00 2.0210949887069227e+00 0 0 0
323 2 1.1580414463864473e+01 8.1277580462451535e+00 2.4491547805419946e+00 0 0 0
324 2 1.2146365613527200e+01 7.6229649834143460e+00 1.2034544586075717e+00 0 0 0
328 1 9.9168637708280514e+00 9.6976673434317462e+00 4.7059959004122769e+00 0 0 0
329 2 9.5507846739925455e+00 9.1895742866458310e+00 5.4454379194011757e+00 0 0 0
330 2 9.3587963701629384e+00 1.0491915049001129e+01 4.6198421629309498e+00 0 0 0
585 2 4.0637259422028773e+00 1.9556306877812264e+00 9.3325144185340871e+00 0 0 0
133 1 1.5751425212860946e+01 3.5208648317720730e+00 6.3999314449481854e+00 0 0 0
304 1 1.2899332823859160e+01 1.1084289435432346e+01 3.6665478414593728e+00 0 0 0
145 1 1.7214045924102116e+01 7.1954430405951664e+00 1.7761134527843458e+00 0 0 0
671 2 8.2431333720324726e+00 5.5534390999677630e+00 8.8577642593293913e+00 0 0 0
247 1 6.8463311084235139e+00 8.9302869071512490e+00 2.9329345816178271e-01 0 0 0
69 2 1.4944540183453928e+01 2.1456806443231319e-01 8.1160394784416532e+00 0 0 0
135 2 1.5850799415681827e+01 2.7010988487343059e+00 5.9918754298606718e+00 0 0 0
2 2 7.3049671684754438e+00 7.3326444615628261e-01 4.7233208077962976e+00 0 0 0
103 1 9.9669232375241510e+00 2.7361737970127260e+00 5.7514023763528221e-01 0 0 0
220 1 3.8976259969620006e+00 1.0921437566093166e+01 3.7138970277548045e+00 0 0 0
209 2 3.4558603117774576e+00 1.0897633081712923e+01 7.5834700764002978e+00 0 0 0
104 2 9.3667141313030022e+00 3.4829503044055898e+00 4.1865358324283231e-01 0 0 1
753 2 3.9214315655993612e+00 9.3126644864595978e+00 9.2893678220708420e+00 0 0 0
224 2 -1.8715855410411808e-01 1.1083735367536557e+01 3.9841705307030364e+00 0 0 0
586 1 -7.6735813843700784e-01 6.3146576570120185e+00 9.6904936828960793e+00 0 0 0
670 1 8.0736220115513806e+00 6.0246560874767434e+00 9.7338019292749856e+00 0 0 0
154 1 1.3030436580012156e+01 4.6175669259019425e-01 1.6706300331604835e+00 0 0 0
606 2 1.0443950164213620e+01 4.1633677176396793e+00 9.6711957931700958e+00 0 0 0
587 2 -1.5366704042074300e+00 6.8840701689647226e+00 9.4072075674767675e+00 0 0 0
218 2 7.2192249260038377e+00 1.1142712449351984e+01 7.1538798245384863e+00 0 0 0
401 2 1.4535326850276977e+00 2.2529065526850647e-01 7.9250901775677640e+00 0 0 0
693 2 -1.3674800198222365e+00 1.0623252993388007e+01 9.6260520621447352e+00 0 0 0
602 2 1.6237210373171010e+01 4.7542438279361354e+00 2.6881195273494102e-01 0 0 0
15 2 3.9845244726741051e+00 4.7369710645301000e+00 9.7327154613350828e+00 0 0 0
834 2 5.8013566139335282e+00 1.0637253878534384e+01 1.4282508309060576e+01 0 0 0
166 1 4.7843658436399696e+00 6.2907931483988770e+00 1.9078348130002937e+01 0 0 0
692 2 -2.9216125569874500e+00 1.0883232169556218e+01 9.7873272539630474e+00 0 0 0
574 1 7.1889835351171127e-01 5.2979461267080796e-01 1.1632057292952112e+01 0 0 0
805 1 1.2259511851441371e+01 1.0798438276777251e+01 1.6189154460703421e+01 0 0 0
833 2 6.7237247696245701e+00 9.4702059583872114e+00 1.3826023967343442e+01 0 0 0
275 2 9.7021785255551549e+00 9.3467535977546312e+00 9.8245544081310641e+00 0 0 0
17 2 -1.7390900530681987e+00 3.9466493097174875e+00 1.9118518728263389e+01 0 0 -1
79 1 3.4125599888866276e-01 1.4417358458889009e+00 1.9120081790710344e+01 0 0 0
507 2 3.9495285328977596e+00 5.1161134731275681e-01 1.4405246242427507e+01 0 0 0
610 1 6.2286238878108451e+00 2.6737790312019163e+00 1.8997186223644739e+01 0 0 0
583 1 3.6697472057090574e+00 1.3336105054093941e+00 9.9603161096371906e+00 0 0 0
189 2 -4.2737207826807992e+00 1.0735258529389396e+01 1.9220668529968890e+01 0 0 -1
728 2 -3.4332178418951371e+00 1.0976243888232460e+01 1.3462921866790380e+01 0 0 0
520 1 2.1011240913734865e+00 4.4945371090108983e+00 1.0073555680760334e+01 0 0 0
721 1 3.6421333721526077e+00 1.0648050099890053e+01 1.6020054763783477e+01 0 0 0
903 2 4.1001615273384449e+00 8.0722340816167096e-02 1.0890574843468389e+01 0 0 0
798 2 9.4088796042729044e+00 9.7253245425318529e+00 1.6165147384253096e+01 0 0 0
505 1 3.3466190348450722e+00 1.2733812420500594e+00 1.4410971462336574e+01 0 0 0
506 2 3.7626940035819851e+00 1.8903992641291041e+00 1.5040165157848611e+01 0 0 0
163 1 9.4534908675820617e+00 1.2419962379066638e+00 1.9250925180379916e+01 0 0 -1
508 1 4.0765683505596950e-01 1.0539445098347651e+00 1.4681921008231193e+01 0 0 0
168 2 4.1061460387257789e+00 6.9648461451298811e+00 1.8843435093447791e+01 0 0 0
510 2 1.3286861279814497e+00 7.7626934817741278e-01 1.4669239882173720e+01 0 0 0
511 1 -4.1441491859818136e+00 6.7697039817203093e+00 1.4269041183444026e+01 0 0 0
512 2 -4.1679351890922263e+00 5.9064933759781617e+00 1.3794638012514415e+01 0 0 0
513 2 -3.8315601374190535e+00 6.5272944706596521e+00 1.5171297323953542e+01 0 0 0
514 1 -1.1369476168331820e+00 6.9879200248573623e+00 1.4411946560343916e+01 0 0 0
515 2 -1.1759940327161358e+00 6.2203535319770529e+00 1.4969820116168522e+01 0 0 0
516 2 -2.0844104343643632e+00 7.2452973133261231e+00 1.4322444958358863e+01 0 0 0
794 2 1.2815069944417946e+01 1.0628627527188867e+01 1.2238117826774731e+01 0 0 0
519 2 1.6430842560737302e+00 5.2293014249568976e+00 1.7966857543800337e+01 0 0 0
588 2 -1.0552280293631973e+00 5.7125076000756980e+00 1.0427615024164449e+01 0 0 0
522 2 2.0168333662113964e+00 5.0022142427722436e+00 1.0915834225509519e+01 0 0 0
249 2 6.5092131670935505e-01 9.3880230362531538e+00 1.8545613394808505e+01 0 0 0
837 2 1.2345533551660406e+01 9.1911170878738542e+00 1.0306877013595518e+01 0 0 0
525 2 -2.3241713967032931e+00 2.2002432295491743e+00 1.0798969373183931e+01 0 0 0
826 1 9.5862586265061722e+00 7.8070450065905037e+00 1.1025106889718625e+01 0 0 0
527 2 -2.8196933225494907e+00 2.0999053476628489e+00 1.8052451756695778e+01 0 0 0
529 1 1.4679444963732484e+00 6.7412568023851733e+00 1.6798854945730181e+01 0 0 0
530 2 1.5698113878912494e+00 6.3033036958646900e+00 1.5892730055648547e+01 0 0 0
531 2 5.5707814239153564e-01 6.9472693064804858e+00 1.6801127731495207e+01 0 0 0
532 1 2.4824962897491023e+00 6.4409244744830563e+00 1.2263448805890548e+01 0 0 0
533 2 3.4172174675501168e+00 6.5486585067770173e+00 1.2194615774519381e+01 0 0 0
534 2 2.3295358162062723e+00 6.0708678086321699e+00 1.3159253668936703e+01 0 0 0
535 1 -1.9353532646594589e+00 1.1398999824868434e+00 1.2217605773180464e+01 0 0 0
809 2 1.0114348674492140e+01 1.0368497412056930e+01 1.2106604272172419e+01 0 0 0
537 2 -1.0471294790781562e+00 7.5606310080086025e-01 1.2162654231892379e+01 0 0 0
538 1 -2.9358009027073448e+00 1.2393575357024005e+00 1.6760249878017685e+01 0 0 0
539 2 -3.8641140586779965e+00 8.9349364709960788e-01 1.6900612682933552e+01 0 0 0
540 2 -2.8027275879933660e+00 1.5355245023200825e+00 1.5823278302806786e+01 0 0 0
541 1 3.1021352305851524e+00 2.6857652183008787e+00 1.2184196098645524e+01 0 0 0
542 2 3.2230256665709200e+00 2.0572915320675591e+00 1.2962303174837967e+01 0 0 0
543 2 3.4001581440398629e+00 2.2349753384760707e+00 1.1384848677194183e+01 0 0 0
544 1 8.9948088268360049e-01 2.5658353760529415e+00 1.6791277500976271e+01 0 0 0
545 2 6.7388135879031275e-01 2.2242303941261574e+00 1.7701724330616265e+01 0 0 0
546 2 6.8226863797390358e-01 1.8821032398891793e+00 1.6109837812180132e+01 0 0 0
547 1 -3.5327009976926567e+00 5.0582539209513682e+00 1.6605640569701091e+01 0 0 0
548 2 -4.1886447216255291e+00 4.3197521372723724e+00 1.6716736504766530e+01 0 0 0
549 2 -3.5180065433863006e+00 5.5380458597958704e+00 1.7466440832144219e+01 0 0 0
550 1 -1.0765252058541628e+00 4.9618213885639113e+00 1.1949385927541490e+01 0 0 0
551 2 -4.5367885018315546e-01 4.3196546802590090e+00 1.2321887930876226e+01 0 0 0
552 2 -1.1804643788416644e+00 5.7450471915682719e+00 1.2505168702283550e+01 0 0 0
553 1 3.2999162108001538e+00 3.4399105808331587e+00 1.5972933777374925e+01 0 0 0
554 2 2.6413633500223925e+00 3.1148604142513321e+00 1.6626191565672986e+01 0 0 0
555 2 4.0428662387742822e+00 3.8827817793203585e+00 1.6461139008550685e+01 0 0 0
556 1 6.7596525115882589e-01 3.3600026091295176e+00 1.2952097862511533e+01 0 0 0
557 2 1.5634393623840337e+00 3.1248042951805872e+00 1.2531619290742659e+01 0 0 0
558 2 2.8273846323578500e-01 2.6184767981434440e+00 1.3403219932436011e+01 0 0 0
559 1 -3.6815634967052975e+00 4.3266974292998279e+00 1.2818325118914977e+01 0 0 0
560 2 -2.8117030403050842e+00 4.5422557834634185e+00 1.2419636064778556e+01 0 0 0
561 2 -3.3940794585541409e+00 3.7899773246184214e+00 1.3613665118336225e+01 0 0 0
562 1 -1.0077385639225946e+00 4.4050419423128382e+00 1.5715205537727826e+01 0 0 0
563 2 -3.7772316242581372e-01 3.9172472477857734e+00 1.6306154661131401e+01 0 0 0
564 2 -1.9491391735316679e+00 4.5417676556019586e+00 1.6129899031640143e+01 0 0 0
565 1 4.9959315643126541e+00 7.0836510586470602e+00 1.1421812810623159e+01 0 0 0
566 2 4.5365976924971729e+00 7.6752008961494180e+00 1.0806660745933105e+01 0 0 0
567 2 5.2321186569114611e+00 6.3319697288611874e+00 1.0867883239917401e+01 0 0 0
568 1 -1.5212662466793168e+00 6.9677567044874094e+00 1.7951747277272524e+01 0 0 0
569 2 -1.4046573194196945e+00 6.0646158948149465e+00 1.8401909622254404e+01 0 0 0
570 2 -1.1322788167496443e+00 7.6569357664318671e+00 1.8572390358984144e+01 0 0 0
724 1 8.1594509134182758e-01 1.1163317013364358e+01 1.2979147372743114e+01 0 0 0
572 2 -5.4968458239310953e+00 1.1705879245353001e+00 1.8064034823690754e+01 0 0 0
621 2 7.9284342114705373e+00 7.8094690987978965e-01 1.2039470277470429e+01 0 0 0
191 2 7.7010024695974488e-01 9.6326504428755637e+00 1.0170575928169363e+01 0 0 0
576 2 9.6907571676075843e-01 1.3389609737040171e+00 1.1121759120769577e+01 0 0 0
577 1 1.9402677923973251e+00 5.2325765474463752e+00 1.4567975208645045e+01 0 0 0
578 2 1.2869127798099793e+00 4.6237549160622473e+00 1.4105510262357003e+01 0 0 0
579 2 2.5891688055924496e+00 4.6009303949073175e+00 1.4961945209106476e+01 0 0 0
580 1 -2.4249109880276345e+00 2.5968506953405206e+00 1.4526348284033963e+01 0 0 0
581 2 -2.1212994565421948e+00 2.1862827560571030e+00 1.3695573618486666e+01 0 0 0
582 2 -1.7951839546590289e+00 3.2178445674589211e+00 1.4938309490817158e+01 0 0 0
333 2 8.7487496591579550e+00 8.1949014140249758e+00 1.8889246117764355e+01 0 0 0
986 2 1.3453064877704129e+01 3.5641040156514836e-01 1.0662273957352719e+01 0 0 0
589 1 1.2157053067908418e+01 1.1803240450788275e+00 1.4192901221053367e+01 0 0 0
808 1 9.4604584154999554e+00 1.0579728652593559e+01 1.2804086770061167e+01 0 0 0
591 2 1.2348376243784825e+01 1.8194277485839081e+00 1.4867142252529353e+01 0 0 0
592 1 9.5716105357942460e+00 1.0141904330260407e+00 1.4687654158280596e+01 0 0 0
807 2 1.2262272125762065e+01 1.0065608972203393e+01 1.5556479108910418e+01 0 0 0
594 2 9.4659013432186274e+00 1.7795822744640977e+00 1.4084595264987261e+01 0 0 0
595 1 5.0829917464735246e+00 6.4767810298159540e+00 1.4694730630456007e+01 0 0 0
596 2 5.0361243102344453e+00 6.2426162066106476e+00 1.5671317529703590e+01 0 0 0
597 2 5.0743782643734905e+00 5.6236532969290822e+00 1.4167971385059989e+01 0 0 0
598 1 7.8045181399665724e+00 6.3524478407859428e+00 1.4405818376414887e+01 0 0 0
599 2 6.8459178536965792e+00 6.7114674348101691e+00 1.4444210633615798e+01 0 0 0
600 2 7.8556941986716398e+00 5.8039778081778870e+00 1.3580678287150274e+01 0 0 0
672 2 8.9075053463117477e+00 6.6472852523635648e+00 9.8556189583008020e+00 0 0 0
603 2 1.0658763661264924e+01 5.2888745004581619e+00 1.8312237441805028e+01 0 0 0
509 2 -1.2910611709637276e-01 2.4664645542961422e-01 1.4861922107037271e+01 0 0 0
605 2 1.1328739055782050e+01 5.2244925774823914e+00 1.0311939745335073e+01 0 0 0
16 1 -1.1007912986304254e+00 4.7088272256553809e+00 1.9237804943912330e+01 0 0 -1
655 1 3.2059495722354336e+00 5.2022980916552597e-01 1.7938419775481986e+01 0 0 0
832 1 6.4324527427517868e+00 1.0016781256587764e+01 1.4589969364372170e+01 0 0 0
609 2 6.4682670088315994e+00 2.2725544786503469e+00 1.0840465171774373e+01 0 0 0
107 2 9.3711317799613276e+00 1.9361275452028213e+00 1.0364855262540187e+01 0 0 0
611 2 6.0678291270330060e+00 1.9442972362670468e+00 1.8336243082471494e+01 0 0 0
613 1 1.0451667804941223e+01 6.3789200702460009e+00 1.6969947169095740e+01 0 0 0
614 2 1.1102423190452498e+01 7.0658575843614360e+00 1.7124270630216451e+01 0 0 0
615 2 9.5806376251805041e+00 6.6656590470280417e+00 1.7291893263412994e+01 0 0 0
616 1 1.1584799917072697e+01 5.9607820715424618e+00 1.1764599518405825e+01 0 0 0
617 2 1.1517802789711402e+01 5.6568399480544223e+00 1.2726380474099246e+01 0 0 0