LAMMPS data file via write_data, version 8 Apr 2021, timestep = 21626000

576 atoms
2 atom types

0.22702048689320042 17.692980513096344 xlo xhi
0.022019486894330857 17.487979513097322 ylo yhi
0.37202048689350375 17.83798051309654 zlo zhi

Masses

1 16
2 2

Atoms # atomic

195 2 2.782791804449547 2.4020375615013503 2.7132457805953294 0 1 1
231 2 0.6197791743258565 3.4163692123815372 2.308973130763568 -2 -1 -2
193 1 1.9501590478528044 2.3658398125570295 2.283183430328642 0 1 1
194 2 1.675033442807255 1.4221137931060972 2.243095070081993 0 1 1
520 1 4.3847669171175365 2.436016074825018 3.1742841443486283 3 2 1
203 2 3.3171964224752366 3.9838030404907245 4.220513253243467 -1 3 -2
249 2 2.706386996072667 2.0689093451750074 0.7078108500712647 0 1 2
522 2 4.727295864954701 1.5549816083159016 3.2913877745816786 3 2 1
521 2 4.927189938975065 2.9064289128909486 2.5301851036977934 3 2 1
251 2 7.809542933357349 2.527117887234358 1.4983107625159233 0 -1 0
67 1 5.77970292326258 2.9420192627725217 0.5920701437074417 -1 -1 1
344 2 6.515560765437762 3.9647255766654674 4.213698685195409 -1 3 -1
362 2 8.14202913219228 0.659773115405081 4.5004301072066015 -1 2 0
70 1 5.919180211504088 0.04371062663717686 0.6190513869238892 0 1 1
71 2 5.8578849448313655 1.0011609177695335 0.8026512100221015 0 1 1
462 2 8.6093465031968 4.3495224685302825 4.258141235073984 0 -1 -1
250 1 8.764394707077724 2.5834249363277655 1.5310650158476606 0 -1 0
252 2 8.882851991441601 3.258538540036977 2.280100263440058 0 -1 0
54 2 3.412002847641649 5.138056930318191 2.362652696277098 0 0 -1
52 1 3.5426084651818344 5.5020669536245395 1.4205998392788275 0 0 -1
447 2 1.2775484071318184 7.27722352509541 2.442288326558292 0 3 0
497 2 3.513199132639755 6.5370514784098015 4.677886495766785 -2 1 0
53 2 4.483150874644814 5.822844283518545 1.3082476984254348 0 0 -1
445 1 1.8241135685472658 7.951012198568975 1.9234758567146761 0 3 0
202 1 2.7470138291399686 4.772868876295055 3.90296776316765 -1 3 -2
496 1 4.139771980510703 7.261158707343166 4.460986257178252 -2 1 0
446 2 2.6022849897223 7.4778423864905355 1.563353008475828 0 3 0
204 2 2.3250596011437086 4.958282002265734 4.713876300641692 -1 3 -2
498 2 3.5883617508984327 7.909345846265421 4.041235152777639 -2 1 0
9 2 0.5826397175548625 6.466716147669023 4.141288627393173 5 2 -2
316 1 6.045848120477034 6.097242977279114 0.5773050284932618 0 1 -4
132 2 6.187867481564174 4.806906927646452 1.937178310991916 2 -2 0
130 1 6.389235966592496 4.83015008459933 2.8806607267928417 2 -2 0
405 2 5.907756701093289 7.413249896743078 4.399372324742913 3 -2 -3
404 2 7.188183595185206 7.743135403838405 3.5483038748179614 3 -2 -3
403 1 6.825932594848258 7.104803019325682 4.190208676153474 3 -2 -3
131 2 6.448392994536789 5.718408747916458 3.193637083785259 2 -2 0
318 2 6.587866579040961 6.917659365205444 0.7952396596602538 0 1 -4
169 1 7.568110096272644 8.33002522760621 1.7385839856834142 3 -1 2
170 2 8.178376182911073 7.7165744049654155 1.2494339882712047 3 -1 2
544 1 1.026597690857231 12.846602287565267 0.4718060518637685 1 -2 5
257 2 2.3320257998808143 10.513331223610882 4.02263270103057 3 2 -1
256 1 3.0989353142597236 10.13396225552661 3.5877551191411055 3 2 -1
258 2 2.631441249306714 9.711327383429447 2.862040855553307 3 2 -1
190 1 4.141994913377257 12.550166546868157 1.9446287267217457 2 0 -2
192 2 3.8140648632708265 11.884106805033992 2.5398464609850624 2 0 -2
529 1 1.0649338410635867 11.985507794424167 2.9118034393441254 4 1 3
531 2 0.8739800301750819 12.197808374794066 1.9349576911924344 4 1 3
80 2 0.6048899675430368 8.987514526183562 1.2564765952894388 2 2 2
530 2 0.3431346155067517 12.401900184647973 3.387948385653698 4 1 3
191 2 5.050228063811259 12.767662256867618 2.2298600260772523 2 0 -2
125 2 8.654544849778091 9.052133625856719 4.228305590434867 0 4 1
171 2 7.62257890600273 9.122391853267503 1.1604581746863347 3 -1 2
31 1 7.42170690150982 11.011860328705328 0.8065191417286847 2 -3 2
299 2 7.301362186610403 12.515122338379507 1.9736109072179089 1 1 -3
280 1 0.7836430944882871 17.37458640315179 2.4331760406681804 2 1 -1
281 2 0.45809264432282937 17.174133650428708 3.331632688971798 2 1 -1
342 2 1.7697332862969242 13.330575801028738 4.224712313825256 1 -1 -4
335 2 3.38266187482546 15.097578972829202 2.1756790334412197 2 -1 -2
334 1 2.504934441717055 15.278663197634229 1.813203486050584 2 -1 -2
282 2 1.2756412249444353 16.539244801915927 2.187679736192757 2 1 -1
336 2 2.2600692441455443 14.37005949217348 1.4396644884054268 2 -1 -2
370 1 5.442852666736512 17.47556121256899 4.195141850129441 -4 -4 1
371 2 5.505913498009663 16.699349238265693 3.615095314649251 -4 -4 1
168 2 8.044526771640845 15.102875262875948 1.7598908759124332 0 -2 -1
300 2 7.78260624556728 13.395264667725172 3.193189650907402 1 1 -3
298 1 7.321464223352388 13.420628749980708 2.3207237001655128 1 1 -3
109 1 5.482798310795811 15.57291995265152 2.534584589379059 -2 -1 2
111 2 6.173101600740333 14.831857113183501 2.6394267581776414 -2 -1 2
110 2 5.6955291440097895 16.165738640736382 1.786600147194647 -2 -1 2
166 1 8.897839723035665 15.597136999339478 1.8053900574771125 0 -2 -1
560 2 3.320647665006247 1.0827160598956203 7.6294440947664315 1 0 -1
559 1 2.7323822388589942 1.835297341559741 7.681916172899246 1 0 -1
347 2 1.0224436316123562 2.1642071363277813 7.994370954852775 -2 1 -5
561 2 3.2250487385370854 2.490680405476733 7.099057627157774 1 0 -1
211 1 4.10869818772425 3.5144641667108343 5.993420461504655 0 3 3
105 2 3.1269600496222374 3.0297797005106144 8.970663787048162 2 0 -1
363 2 6.559661757239628 0.6426665267245636 4.738730422715625 -1 2 0
294 2 8.61819799125547 1.3566933067025628 8.584786486620931 1 -1 0
343 1 6.723519447503714 3.6335392599185385 5.144808355377102 -1 3 -1
345 2 7.036035726514713 2.700310435371473 5.175299689269239 -1 3 -1
361 1 7.510960760228489 0.9576307311408964 5.164113452041248 -1 2 0
212 2 5.073967570109431 3.527909172399612 5.828413283255322 0 3 3
354 2 6.470482368798065 0.42024673500481036 8.678696372779017 0 -2 -1
390 2 8.444909910823322 3.947462857545674 7.911161027054689 3 -4 1
504 2 0.9738403174489336 6.446655767584754 6.687406232965103 0 0 2
503 2 0.6521016217739093 7.626985643815547 5.713993065302554 0 0 2
137 2 3.7187982287065706 6.105951208697215 7.875830443638469 2 1 1
502 1 1.3790784920269226 6.972063213956322 5.934568628241498 0 0 2
176 2 2.165746639973926 8.228872612017406 6.849550714304112 0 -2 5
138 2 4.26498390669045 6.834356597291337 6.742795024409455 2 1 1
136 1 4.09284548009944 5.9193338464061975 7.02627765887562 2 1 1
213 2 4.028043723969175 4.396591124177676 6.444158314557847 0 3 3
279 2 0.3354797967922786 4.647183826330332 8.089921127268088 -1 1 -2
277 1 0.2911283815354926 5.652158596424059 8.051896892363564 -1 1 -2
499 1 6.976343301337458 6.227191995670639 8.8306923220276 0 -1 0
500 2 7.43330377335959 6.34669080344649 8.001453207529925 0 -1 0
144 2 7.6055420987001465 5.085923840473729 6.019105719290114 1 7 3
142 1 7.948349981902599 5.957566130079229 6.302207914567981 1 7 3
143 2 7.602794676935494 6.560646983890362 5.654536953464657 1 7 3
501 2 6.455569465652632 6.999958828695558 9.041863938316535 0 -1 0
552 2 4.289635002011229 10.117503121619796 5.041623972389977 -2 0 -3
175 1 2.517034734876727 9.098879050077038 7.0292463804952074 0 -2 5
177 2 2.5921246534650484 9.209329942310953 8.014774729886089 0 -2 5
154 1 1.1197769494552443 11.83187008436831 6.887747952480385 2 1 1
156 2 1.4616559356812464 10.95045945572036 6.980970834188975 2 1 1
341 2 1.6829016154813325 12.96035710749716 5.75351812081244 1 -1 -4
551 2 4.071319373973072 9.901016620821652 6.47505502024541 -2 0 -3
157 1 4.668217611597624 12.948309402054624 5.982261121690172 1 1 2
430 1 8.576427550112498 10.146154108915782 8.72776454662031 1 2 -1
550 1 4.742470511988618 10.265694820842661 5.9067379655709935 -2 0 -3
510 2 6.551162990776946 10.192682677691712 6.116108616859499 3 3 -1
159 2 4.634613770467885 11.924525595656634 6.010108321934127 1 1 2
508 1 7.522542434181059 10.08737802865771 5.928675345518088 3 3 -1
509 2 7.895702654981731 9.984382117166524 6.797159654809774 3 3 -1
14 2 8.065844656764956 11.853285787056532 5.4041587248841045 1 -1 -1
13 1 8.558893043210666 12.631816807347715 5.1865942106043414 1 -1 -1
38 2 5.769752882667694 12.881061073945036 9.04637504447633 1 0 -1
436 1 0.7488405804220709 15.950770530094408 8.748706289513748 -3 -2 2
46 1 3.876790402788473 16.974962817491868 6.378234454249321 0 -3 0
158 2 3.8720479388055904 13.128292567517851 5.467948763617574 1 1 2
47 2 4.582111020986472 16.780707825343708 7.000886262400193 0 -3 0
340 1 2.1011974428345495 13.597805497214773 5.118475430465544 1 -1 -4
18 2 1.7342295620588286 15.017631303484597 5.876077979090347 -1 -1 1
16 1 1.6207041826787147 15.886939577972125 6.383679850317588 -1 -1 1
17 2 1.3104236928052977 15.769432671529307 7.343168366818214 -1 -1 1
48 2 3.0492143937037883 16.44954966525379 6.534886412573906 0 -3 0
161 2 0.47021436405154227 16.469332526919434 5.479477429401657 3 -2 -1
372 2 4.666642000424387 17.30000334419142 4.767949611599214 -4 -4 1
352 1 5.87614043358295 17.218231695754135 8.31798027335307 0 -3 -1
563 2 6.9910163031678625 15.061988779098334 5.825735626401731 -1 0 0
562 1 6.706506403995828 14.392331082135476 5.148536943957302 -1 0 0
392 2 7.064354535812841 16.688418394553167 7.367720156974538 3 0 4
564 2 5.852480257643199 14.023729457958499 5.416284589109817 -1 0 0
391 1 7.67757029924026 16.36259021663254 6.728567266268069 3 0 4
15 2 7.953680962778705 13.331308347621896 5.442940239607965 1 -1 -1
39 2 4.699856129936599 13.14284419472841 7.916146115681527 1 0 -1
393 2 7.7359932089242385 17.19908941986812 6.0990028767820865 3 0 4
37 1 4.797463357977797 13.145217697163472 8.87380448398567 1 0 -1
468 2 8.917647190916904 15.760799237123166 7.295881262510467 -3 2 -2
353 2 5.63962707526448 16.569745546415962 9.021493407701628 0 -3 -1
104 2 3.4951056651819172 3.097478062008418 10.48076326585235 2 0 -1
365 2 3.1163694521583074 1.3492738985577595 12.090704150435254 -1 0 0
295 1 1.554912054786995 0.27616991531643803 12.278906035962104 1 0 -1
366 2 3.165429529105851 2.91942768316307 12.449516822902265 -1 0 0
297 2 0.7339927250337486 0.7834566858953068 12.244508686884066 1 0 -1
364 1 3.5716471162282666 2.1862400526104415 11.96805176387645 -1 0 0
103 1 3.493855295115366 3.6622660424169147 9.687736407369435 2 0 -1
242 2 7.042354031590907 3.278805091720612 12.202271119351598 1 1 1
243 2 6.87623682761849 4.191178795577114 10.907900487995645 1 1 1
241 1 7.427369367965371 4.039355546104858 11.729536301527293 1 1 1
424 1 6.259638465607873 3.7501131878896063 9.350629627275625 -4 2 -1
425 2 5.337564381361199 3.523981373563384 9.554533657891035 -4 2 -1
292 1 8.026502153804447 1.292720810901805 9.343552672511413 1 -1 0
293 2 7.496593575107509 2.1091150234937195 9.374270192400754 1 -1 0
90 2 5.321509369477749 2.082021244816679 12.774248840017687 0 3 1
89 2 6.405899853590677 1.1388432280805045 13.102330599582945 0 3 1
88 1 6.236559966124448 2.1904638153714298 13.08915937084804 0 3 1
178 1 2.153277904964413 4.6546098036050765 12.561378843299034 1 0 2
180 2 1.1796603287745646 4.6618786952419216 12.446168029228176 1 0 2
413 2 2.7226924879028425 7.81181464198672 12.502778117443807 2 -1 -1
412 1 2.1796519605277336 8.411143626859223 12.017583780978908 2 -1 -1
119 2 3.6317814137233304 5.633610108365365 12.159709023415509 -3 2 0
118 1 4.347695704089119 6.229742562138749 12.47571066351851 -3 2 0
473 2 3.06753188115212 5.478558245982026 9.714189562878852 0 -3 3
474 2 2.080521115820213 6.618468309208137 9.722098852156531 0 -3 3
421 1 0.3329433977777041 6.637663528774851 10.58997731094074 1 3 2
422 2 0.6828984789508254 7.2869549082269005 11.25138122329512 1 3 2
472 1 2.9893639953777895 6.374462409757019 9.36040139205112 0 -3 3
210 2 4.380752768987815 7.438069251293912 9.890672239215249 -1 -1 1
517 1 8.697865015353143 7.787729031388058 10.333376168515793 -3 4 0
120 2 4.834112432541657 6.518605343005106 11.653801298494814 -3 2 0
208 1 5.25499652254136 7.711306351123531 10.252185605731357 -1 -1 1
209 2 5.255694075559013 8.672226875210532 10.278611388107178 -1 -1 1
152 2 7.563183207139197 5.416379575715369 12.61097898795282 0 -1 0
333 2 7.050194416674383 7.835509807289617 12.687096918667118 -1 -1 -4
153 2 8.651148211334709 6.57251561161556 12.658669779293103 0 -1 0
519 2 7.939444941081293 7.173289725070706 10.09777240890427 -3 4 0
151 1 7.726015312200612 6.37881898861953 12.801795037236571 0 -1 0
426 2 6.38536599736072 4.690435408239095 9.148778748270306 -4 2 -1
507 2 2.4728170154375686 9.196396388414074 10.427806065721956 -1 -1 2
414 2 1.7717262124119861 9.020893690604309 12.626651286729428 2 -1 -1
116 2 0.7498557298480891 11.25385533904397 12.790218332768463 3 -5 0
11 2 1.8773436478770023 12.351252672569828 10.04965785011196 -1 -1 1
315 2 3.50152132358546 12.374545247696506 12.04726553405091 -1 -1 0
10 1 2.7867458284103854 12.064573421658409 10.237936165629877 -1 -1 1
12 2 3.314385056828982 12.45402235155875 9.473558375134774 -1 -1 1
313 1 3.544956651028768 12.138235846130003 13.032117659166975 -1 -1 0
117 2 2.2724964089050075 11.255161325854596 13.289478106894657 3 -5 0
115 1 1.4029708866956438 10.74885932288281 13.319353669486972 3 -5 0
505 1 2.9480381211854256 9.61927966686457 9.707449273772305 -1 -1 2
506 2 2.742869318560272 10.552455937288634 9.761067741638008 -1 -1 2
239 2 4.5940666674157775 10.592991439919716 11.135112119377384 2 1 -1
240 2 6.046681669434083 11.188950721173205 10.606067497643808 2 1 -1
238 1 5.537131005655544 10.42887113870258 10.933338923907153 2 1 -1
332 2 6.305980064352694 9.122915003554276 12.016548011788725 -1 -1 -4
331 1 6.844770541859118 8.826810549235384 12.785093370663292 -1 -1 -4
244 1 7.066480258195794 12.35840753986514 9.659921716490503 2 -1 0
576 2 8.105037061817756 12.9556381944369 13.338634292286647 -2 2 2
246 2 7.660809229500003 11.754147891451893 9.161614685630392 2 -1 0
284 2 8.543744970611296 9.579933480274914 12.819205002598032 1 -1 0
432 2 8.612155546314373 9.394272288638327 9.404770124768586 1 2 -1
133 1 0.5565952166514687 13.295812096807946 9.362481232967234 4 -3 -1
437 2 1.527144865553967 16.377731433533107 9.251422989717415 -3 -2 2
173 2 2.662871157661067 17.29756500746095 10.769662475015203 0 -1 1
172 1 2.872318200606467 17.009082387983415 9.897332739849192 0 -1 1
174 2 3.734351963984245 16.522758729990763 10.02861937294009 0 -1 1
135 2 0.8455366609129397 14.25506363115706 9.303823653677924 4 -3 -1
296 2 1.5554568496017245 17.28508438989227 13.187393471574689 1 -1 -1
435 2 8.441897426292758 17.459500912604636 10.669430265212531 5 0 -1
245 2 7.702056220725446 13.163494999841284 9.78361226590914 2 -1 0
182 2 4.780152388164884 15.095572599986426 13.2110672043758 1 0 0
147 2 4.822848604176476 14.481656141387516 9.806666779871641 -2 -3 0
145 1 5.094511535578208 15.387974075895258 10.162864634612383 -2 -3 0
146 2 5.2934592198317265 15.330211843305145 11.124214108176076 -2 -3 0
237 2 7.723119189823091 17.148429295837886 12.518404474699857 0 -3 -2
236 2 6.510362758153644 16.478263553759714 13.269626747527047 0 -3 -2
183 2 6.082584153854613 14.317161086199993 13.196000758722105 1 0 0
181 1 5.630814249596964 15.10167970170321 12.807628311601613 1 0 0
433 1 8.603555453459213 16.804366187939575 11.339614423746545 5 0 -1
235 1 7.053847171474153 17.348925286602217 13.284041882800318 0 -3 -2
557 2 8.900858062990148 15.108744103163957 10.63692123028327 -1 0 1
248 2 3.080213605063514 0.9715830029983148 17.195787009478384 0 1 1
456 2 2.4649420643464084 2.8076518572577367 15.794954904590616 3 3 -2
454 1 1.9426949634736554 3.5019613915124865 15.25315518168472 3 3 -2
247 1 3.216792463065864 1.9408028525724397 17.33949964253278 0 1 1
186 2 0.5228622406031616 0.7812209257532632 15.343859064912072 -1 3 -1
455 2 1.7706837313115342 4.212529966081418 15.921515498610075 3 3 -2
185 2 0.2352547536194649 2.20658670045244 15.067636064382933 -1 3 -1
69 2 4.867347369052629 2.861618283248791 17.707287598692368 -1 -1 0
569 2 6.57759254473682 2.6332966092165764 14.750498785066325 1 -2 2
568 1 7.170848933514316 2.8396448132372902 15.510199135338636 1 -2 2
68 2 6.30875662655132 3.0976197834596926 17.291688042372968 -1 -1 0
570 2 7.361024533065406 3.763978697188986 15.417164206701727 1 -2 2
72 2 6.565702984672555 0.04929774311594781 17.299106189725563 0 1 0
107 2 0.6700976423732694 5.4598041478656025 17.283097184614594 0 0 1
179 2 2.198570995302545 4.425831068107843 13.513197009167932 1 0 2
26 2 3.7682977029234177 6.220524534444554 15.481874408823693 0 0 -2
25 1 4.409153946641711 5.71041371556666 14.976271090065266 0 0 -2
27 2 4.373688693308946 5.979714333301167 14.023281620746406 0 0 -2
274 1 1.9860823287501426 7.875548803817827 15.367659479133213 2 -1 2
276 2 2.6799958655005014 8.255964596250447 15.959140719254075 2 -1 2
275 2 1.7398606920923825 7.070341548159573 15.88439434747111 2 -1 2
106 1 1.534385581083937 5.586438765444368 16.996347726274205 0 0 1
549 2 4.268299635120016 7.547772067982632 17.550088384675057 -1 -3 -1
547 1 3.7841123994108603 8.360912956406194 17.28613032976113 -1 -3 -1
108 2 2.1345970148676456 5.755149671567612 17.80462211136017 0 0 1
74 2 7.436467487827176 5.946682766095105 14.790935694619755 -1 1 -1
73 1 6.990988626155525 5.390107359550997 15.4890072291467 -1 1 -1
75 2 6.046128638428543 5.478271505396922 15.320826426976673 -1 1 -1
317 2 6.344420177445063 6.1084445428914655 17.10497248129011 0 1 -5
314 2 3.521698787994723 12.966325346808851 13.550460552302795 -1 -1 0
188 2 0.38319586643737963 10.124777477910136 14.280397396835774 2 1 -2
545 2 1.486039817233735 12.302484722868686 17.236304366322862 1 -2 4
189 2 0.5730416364863641 8.904029793024858 15.138279378526267 2 1 -2
376 1 2.3383101265805863 11.213716080202047 16.362856360588925 2 1 0
377 2 1.937176168826972 10.753953730833567 15.661762316861015 2 1 0
378 2 2.318317970515107 10.55146153482173 17.036076706676667 2 1 0
548 2 4.413352560208899 9.099335367988672 17.296702446218568 -1 -3 -1
33 2 6.59402742563595 10.98645649544492 17.656056460048315 2 -3 1
574 1 7.187169254024726 13.053379816505478 13.743522161504876 -2 2 2
323 2 4.947320470130942 11.275232391740305 13.686283446016493 2 2 1
575 2 6.68670801675872 12.184083976397286 13.847306856121218 -2 2 2
324 2 6.0247798122984815 10.05216112327537 13.734285723275349 2 2 1
375 2 4.629236949835624 11.560173028649483 17.10129954835887 -1 1 -2
322 1 5.65280351119025 10.83453083421595 14.171792340762282 2 2 1
374 2 5.2508560349017 10.658048341994123 15.969320193396987 -1 1 -2
373 1 5.148439481283772 10.708516151503924 16.96305228104367 -1 1 -2
32 2 8.153809978495373 11.438418360863354 17.758930949353626 2 -3 1
34 1 4.560829016892098 13.472083301311148 16.737890715876286 1 -2 -3
36 2 4.108940881743284 13.605765053972217 17.591594784985098 1 -2 -3
76 1 3.407933942326494 16.682231062911864 16.989478613929805 3 -2 2
78 2 2.9763362483372644 16.3981516258407 17.818556452334008 3 -2 2
77 2 4.347969811552254 16.95421896734028 17.284313168190895 3 -2 2
491 2 0.7031252464492528 16.25564428125447 15.062370318482142 1 1 -1
492 2 2.1409221530515223 16.605134399770726 15.682353031818462 1 1 -1
325 1 3.4513818848716684 14.359865066013247 14.481312142837547 -1 0 -1
327 2 2.750600806243437 14.948794749333587 14.78319532779333 -1 0 -1
490 1 1.6484370289756483 16.433760862822034 14.817845709657444 1 1 -1
326 2 3.9401904573878 14.256271792706146 15.28258052288449 -1 0 -1
488 2 7.311755409759085 13.91166776663522 15.125102681841856 1 -3 1
216 2 7.281902458217994 17.418485855262727 15.159865213644583 1 -2 -1
487 1 7.332064266590697 14.227054680091728 16.091183288426482 1 -3 1
35 2 5.360714043852294 14.00265395128763 16.808300128270613 1 -2 -3
214 1 7.485283592651321 17.08399782271186 16.056016032910804 1 -2 -1
215 2 7.490484958783092 16.07842786498503 16.08363670518648 1 -2 -1
489 2 8.083962272967122 13.739722628595773 16.48999852960955 1 -3 1
458 2 12.641598715227618 3.2262642946908824 4.1540581988147975 1 -4 0
19 1 9.034778457002787 0.3530234330746777 3.3327550850917005 2 2 1
399 2 10.574239357254672 2.1992578936455014 0.8554639500923416 1 0 -2
460 1 9.326324337827176 4.158046113530025 3.6824646802742698 0 -1 -1
398 2 12.097432838687258 1.8439595700220246 0.6446193874934225 1 0 -2
23 2 10.891818206637263 0.6673587232134464 4.382343448586241 1 0 -2
21 2 9.028758788627346 1.0888352315976186 2.6947305004658206 2 2 1
22 1 11.710763600669598 0.2952343003514444 4.7256243698798786 1 0 -2
457 1 13.422836152601082 3.4754645917440254 3.586070503645799 1 -4 0
262 1 14.00389864843394 2.431487176441877 0.9482456763714759 0 3 0
263 2 13.885014399155988 2.742962307050133 1.934291180700691 0 3 0
30 2 16.40519694784318 3.7772801408119356 3.8841934365029807 -1 1 -3
459 2 14.230500236679877 3.588338094532098 4.123981306230258 1 -4 0
567 2 16.985658342068813 0.6458596514664825 1.0124585591620348 -1 1 -3
230 2 16.88959368931977 3.823090882853342 1.4130757283982918 -3 -1 -2
28 1 15.831328735178191 3.558089747662935 4.627009608729685 -1 1 -3
565 1 16.19056999172189 0.8806830496186333 0.45729389918837643 -1 1 -3
264 2 14.827701792931578 1.9036402288750656 0.9029554666792161 0 3 0
229 1 17.213937391228196 3.8224244952410973 2.34235027040395 -3 -1 -2
524 2 12.007735905928227 6.592152347253293 3.116581201715673 3 1 1
525 2 13.068384358389066 5.380049610533954 3.463336773747943 3 1 1
359 2 10.079318888423934 7.475634165119004 3.2087720327402676 0 -2 1
358 1 10.38886767643219 6.680074979721695 2.7544325518658437 0 -2 1
360 2 10.02040665668817 6.727635034863202 1.8299052582545487 0 -2 1
523 1 12.898140365367514 6.334725075751369 3.4263770226206587 3 1 1
461 2 9.558362206938813 5.062686410308245 3.3461200445668933 0 -1 -1
8 2 17.654651482609097 5.51336128103861 2.8921605960032872 4 2 -2
123 2 13.429486886136734 7.915314988270129 4.733900082457844 -1 1 2
56 2 15.918667449450066 7.128857367700908 2.67154062393127 -1 2 -3
57 2 14.515830320916622 6.739748075254102 2.3858976575426865 -1 2 -3
55 1 15.315133272478734 7.034335591749058 1.9013554169423323 -1 2 -3
267 2 15.92909598509022 5.740560686244654 0.6392265367483042 1 1 -1
7 1 17.691919091858527 6.464714591036119 3.261642514108411 4 2 -2
92 2 14.532704484057753 7.875036214062614 0.6769788024919712 1 -1 -1
320 2 10.191051366812559 10.099200879261629 2.8221722678152177 0 1 -2
319 1 10.726244076410032 10.647704000053416 2.222740436325856 0 1 -2
321 2 10.515458716429512 11.620083070515095 2.3500997822384613 0 1 -2
465 2 12.426333045266578 10.324585947523094 2.656740231369461 1 -1 1
124 1 9.628828767551648 9.098226569449505 4.0777651515707145 0 4 1
483 2 11.021113288786855 9.878618794185968 0.6063400378783826 -2 1 0
122 2 13.559333220979074 9.332499183282195 4.288993931247188 -1 1 2
463 1 13.371538044185437 10.494658683933423 2.752810535121699 1 -1 1
495 2 16.746109232471913 9.96472421428597 2.4153951083430685 1 0 0
464 2 13.577621685327422 11.073337420568235 2.0078469034167723 1 -1 1
494 2 15.285045085308132 10.061356885638661 2.761727199319455 1 0 0
493 1 16.07319292866562 9.723217007429659 3.169079476037601 1 0 0
290 2 16.04298864036798 11.826400965178431 4.23625052602607 -5 2 -2
289 1 16.424042440125003 12.639713823215297 4.650342929329337 -5 2 -2
79 1 17.576391156685187 9.7219340365254 0.7929191887272616 1 2 2
44 2 10.536527038173864 13.946627443090685 3.687071311445526 -4 -1 4
24 2 11.981254796480503 17.27540944895592 3.9426342234133114 1 -1 -2
45 2 9.942113984270419 13.885213580384326 2.281442211037214 -4 -1 4
43 1 10.493420879910031 13.393398349780075 2.882011602483771 -4 -1 4
384 2 11.961005274118627 14.81441196525132 2.652294320451822 0 -1 0
382 1 12.39721391166874 15.668785920444503 2.830969941315873 0 -1 0
383 2 12.476727656699763 16.041381752978698 1.8576830862220068 0 -1 0
167 2 9.272876016879424 15.800700703655856 0.895831963776009 0 -2 -1
20 2 9.028780340525675 16.991739011363748 2.760129179790465 2 1 1
338 2 13.981528728235753 16.030603999779963 0.6102680364916943 0 0 2
291 2 15.932158235296193 13.415966850235199 4.227482875937304 -5 2 -2
513 2 15.587112951075648 15.167441165477102 2.669628055835919 -3 0 3
512 2 14.557051594124054 15.071478002151782 3.8620335256098848 -3 0 3
162 2 16.586031741775216 16.025509763148335 4.598289571640759 2 -2 -1
511 1 15.403741987654447 14.706447285041474 3.5624032316401144 -3 0 3
406 1 15.650699174343867 15.530447213688593 1.2453722968650132 -1 2 2
408 2 15.810074826655793 16.319205527234868 0.7203847210970576 -1 2 2
160 1 17.325930230508995 16.651119624376527 4.718792596633321 2 -2 -1
407 2 15.860326179526886 14.725436547172766 0.6744722929479927 -1 2 2
141 2 10.62220715176555 2.869318097802471 9.06905408526413 -2 1 -4
150 2 12.876361494210439 2.803758306827922 8.938891400177427 2 -3 0
388 1 9.35949621668838 4.005791919609446 8.002870489834406 3 -4 1
389 2 9.756330353917527 4.094361039982338 7.104769064784445 3 -4 1
409 1 9.958182714269348 1.1490987254103069 7.548997052529626 -2 1 2
410 2 10.273047496235364 1.788830073430375 6.86093089160734 -2 1 2
268 1 11.119416004310054 3.561586084740377 5.914239545689442 1 1 1
270 2 11.722618058018067 4.298568437398339 6.179108305867947 1 1 1
269 2 10.725552853205349 3.785741718981929 5.048822087200378 1 1 1
411 2 10.771818465282339 0.8555490999204638 7.932965840269275 -2 1 2
572 2 12.720084707878614 0.6998689691787852 6.023060164946066 -1 2 0
571 1 13.339281159255632 0.8271116662646141 6.747330166196649 -1 2 0
348 2 17.084514694255184 2.25263162525508 7.443447752900978 -3 1 -5
149 2 13.497266657503536 2.3541097216216262 7.570354760488627 2 -3 0
148 1 13.705418780591517 2.934833825262621 8.370103488136325 2 -3 0
29 2 15.80873758987409 4.286639792823387 5.2649130625966745 -1 1 -3
95 2 15.687551967288789 2.007471914316292 5.3831256047438645 -1 -2 1
96 2 16.34465361721199 0.6120468186172777 5.369025245773402 -1 -2 1
573 2 14.196332742726423 0.8906901080712257 6.3470860922965295 -1 2 0
94 1 15.846356275354784 1.2029595620375346 5.913536299707988 -1 -2 1
346 1 17.685775683387522 2.7354224595624728 8.010852150349418 -3 1 -5
527 2 10.648903675602805 6.349407877978217 8.612945727947094 0 2 -4
255 2 13.311281538681433 4.558221537399478 7.70569275831436 2 2 2
380 2 12.518467282249325 8.201913357130776 8.626704931861783 -3 0 -1
100 1 10.675000849798986 6.755925736919443 7.0756233291070645 -2 -1 3
102 2 11.061229933484546 7.555160646912775 6.615630379518661 -2 -1 3
253 1 13.092588109734306 5.180178629201696 6.9502319160349355 2 2 2
101 2 9.76523480754363 6.496266897326521 6.690433005860877 -2 -1 3
381 2 13.125708636071952 6.86675805244453 7.880911873414258 -3 0 -1
278 2 17.66597516468467 5.935687592570887 8.947030446679461 -2 1 -2
379 1 13.345764289111049 7.723602991066647 8.345487907537704 -3 0 -1
254 2 13.993502927386753 5.4080277633296445 6.681094513063257 2 2 2
450 2 16.15309067561718 5.896924439225713 7.0525673216324405 -4 3 3
448 1 15.577331672702801 5.886969538836188 6.228252592551876 -4 3 3
449 2 15.70332268002559 6.796790674483601 5.845767301839215 -4 3 3
271 1 16.50470115327775 8.334827824882067 5.6603347328933 1 -2 0
555 2 15.054722955523468 8.220793995743795 8.670672834522271 -4 2 -1
260 2 12.735238113178193 11.987399994387681 4.868752211941848 -2 1 0
387 2 12.118583757920169 9.14492196403551 6.164813099465292 1 -4 -1
385 1 11.22701527267232 9.274348095035476 6.480325200976132 1 -4 -1
126 2 10.072415263214666 9.272653692017506 4.932016541249237 0 4 1
386 2 11.228881403651384 9.211737310049076 7.48725948758401 1 -4 -1
431 2 9.543293248834772 10.421233327628585 8.584236696267933 1 2 -1
87 2 9.879881342501553 12.463939296915965 6.652856257745482 1 1 4
85 1 10.389049486613208 12.132084487252898 7.362501205025183 1 1 4
86 2 10.962563380833029 11.567190223751904 6.913684844538924 1 1 4
259 1 12.907029880237742 12.708028586672814 5.507477080675136 -2 1 0
121 1 13.508159750712254 8.789204325294639 5.1172884111195325 -1 1 2
155 2 17.634580710997195 11.609315828033616 6.741846128050074 1 1 1
272 2 16.429699000954802 8.817695719243277 6.505188301949371 1 -2 0
553 1 15.571989256714641 8.97794735662054 8.399674465139487 -4 2 -1
542 2 13.8111255517345 11.301077195259165 8.929078804594788 -4 4 2
273 2 16.22074048758439 8.964225538043605 4.9610827155521005 1 -2 0
554 2 14.877635217379556 9.512786948153112 8.02345598316809 -4 2 -1
65 2 15.212940681428808 12.10806312060983 7.607756196310559 0 -1 2
64 1 14.548070813309977 11.399231682680577 7.489384298943304 0 -1 2
66 2 13.95235990501512 11.762428569370906 6.84334170483168 0 -1 2
128 2 12.807454086097653 14.189254388673255 8.439934290672324 -2 4 0
127 1 12.152506568866208 13.680704831492118 8.909028148413084 -2 4 0
453 2 12.3806125605656 17.36217896702963 8.218975650960216 0 3 -1
515 2 10.476690355332906 14.917771082289198 6.07571526164232 2 -2 1
261 2 12.20159672491669 13.360167650648611 5.365587086264248 -2 1 0
129 2 11.561357456598973 13.374652048563844 8.219928390113386 -2 4 0
451 1 11.809134631898134 16.677508814971226 8.553887074972947 0 3 -1
516 2 11.077701850203423 15.769117947166434 4.952069983862717 2 -2 1
514 1 10.95758105537149 14.814087067809577 5.196034563778394 2 -2 1
466 1 9.819356910577284 15.306224953109044 7.560646758410068 -3 2 -2
467 2 10.451255316747602 16.012954653839113 7.882036393202888 -3 2 -2
305 2 16.38235815197418 13.461517292436941 6.413597128457353 1 0 -1
306 2 15.517476285480635 14.125497933725892 7.56602208911563 1 0 -1
134 2 17.448953919986618 13.24730136330212 8.599376339286676 3 -3 -1
304 1 16.215931427937026 13.479330278614114 7.374970698282832 1 0 -1
198 2 13.926860502043242 15.953965846629151 7.137533479979268 2 -2 0
197 2 14.732644590114397 15.850512396401742 8.554231041240831 2 -2 0
196 1 14.423975770133033 15.3588003640682 7.771741902946782 2 -2 0
5 2 11.392509568764337 0.5567620975903274 11.784740384355237 1 1 -1
444 2 10.304020438548456 3.0163920085710325 12.493845091080157 -3 -1 5
442 1 10.160740134297141 3.6368063104603414 11.75411994589067 -3 -1 5
140 2 10.942253778264813 2.9576687744478005 10.570429575019032 -2 1 -4
139 1 11.357993646493993 2.7572252462484355 9.727765032211135 -2 1 -4